butane

14 atoms
13 bonds
24 angles
27 dihedrals

2 atom types
2 bond types
3 angle types
3 dihedral types

-1.410910 48.589090 xlo xhi
-2.794425 47.205575 ylo yhi
-1.433156 48.566844 zlo zhi

Masses

   1  1.007970 # H
   2 12.011150 # C

Pair Coeffs # lj/cut/coul/cut

   1    0.0300    2.5000 # H-H
   2    0.0660    3.5000 # C-C

Bond Coeffs # harmonic

   1  340.0000    1.0900 # C-H
   2  268.0000    1.5290 # C-C

Angle Coeffs # harmonic

   1   37.5000  110.7000 # C-C-H
   2   33.0000  107.8000 # H-C-H
   3   58.3500  112.7000 # C-C-C

Dihedral Coeffs # multi/harmonic

   1    0.1500   -0.4500    0.0000    0.6000   -0.0000 # H-C-C-H
   2    0.1500   -0.4500    0.0000    0.6000   -0.0000 # H-C-C-C
   3    0.6165   -0.0325    0.1510    0.8000   -0.0000 # C-C-C-C

Atoms # full

      1       1       1  0.060000 -1.410910e+00  1.873446e+00  3.769090e-01 # H
      2       1       2 -0.180000 -3.210050e-01  1.873446e+00  3.912820e-01 # C
      3       1       2 -0.120000  2.382220e-01  6.446220e-01 -3.313730e-01 # C
      4       1       1  0.060000  1.953100e-02  2.794769e+00 -8.215700e-02 # H
      5       1       1  0.060000 -4.530000e-04  1.894481e+00  1.433236e+00 # H
      6       1       1  0.060000 -8.274600e-02  6.235290e-01 -1.373247e+00 # H
      7       1       1  0.060000  1.328531e+00  6.444380e-01 -3.171850e-01 # H
      8       1       2 -0.120000 -2.382880e-01 -6.446850e-01  3.314250e-01 # C
      9       1       2 -0.180000  3.209770e-01 -1.873460e+00 -3.912810e-01 # C
     10       1       1  0.060000  8.274900e-02 -6.233830e-01  1.373264e+00 # H
     11       1       1  0.060000 -1.328547e+00 -6.446460e-01  3.172680e-01 # H
     12       1       1  0.060000  9.000000e-06 -1.894521e+00 -1.433156e+00 # H
     13       1       1  0.060000  1.411286e+00 -1.873611e+00 -3.770940e-01 # H
     14       1       1  0.060000 -1.935800e-02 -2.794425e+00  8.210800e-02 # H

Velocities

      1  0.000000e+00  0.000000e+00  0.000000e+00 # H
      2  0.000000e+00  0.000000e+00  0.000000e+00 # C
      3  0.000000e+00  0.000000e+00  0.000000e+00 # C
      4  0.000000e+00  0.000000e+00  0.000000e+00 # H
      5  0.000000e+00  0.000000e+00  0.000000e+00 # H
      6  0.000000e+00  0.000000e+00  0.000000e+00 # H
      7  0.000000e+00  0.000000e+00  0.000000e+00 # H
      8  0.000000e+00  0.000000e+00  0.000000e+00 # C
      9  0.000000e+00  0.000000e+00  0.000000e+00 # C
     10  0.000000e+00  0.000000e+00  0.000000e+00 # H
     11  0.000000e+00  0.000000e+00  0.000000e+00 # H
     12  0.000000e+00  0.000000e+00  0.000000e+00 # H
     13  0.000000e+00  0.000000e+00  0.000000e+00 # H
     14  0.000000e+00  0.000000e+00  0.000000e+00 # H

Bonds

      1       1       1       2 # H-C
      2       2       2       3 # C-C
      3       1       2       4 # C-H
      4       1       2       5 # C-H
      5       1       3       6 # C-H
      6       1       3       7 # C-H
      7       2       3       8 # C-C
      8       2       8       9 # C-C
      9       1       8      10 # C-H
     10       1       8      11 # C-H
     11       1       9      12 # C-H
     12       1       9      13 # C-H
     13       1       9      14 # C-H

Angles

      1       1       1       2       3 # H-C-C
      2       2       1       2       4 # H-C-H
      3       2       1       2       5 # H-C-H
      4       1       2       3       6 # C-C-H
      5       1       2       3       7 # C-C-H
      6       3       2       3       8 # C-C-C
      7       1       3       2       4 # C-C-H
      8       1       3       2       5 # C-C-H
      9       3       3       8       9 # C-C-C
     10       1       3       8      10 # C-C-H
     11       1       3       8      11 # C-C-H
     12       2       4       2       5 # H-C-H
     13       2       6       3       7 # H-C-H
     14       1       6       3       8 # H-C-C
     15       1       7       3       8 # H-C-C
     16       1       8       9      12 # C-C-H
     17       1       8       9      13 # C-C-H
     18       1       8       9      14 # C-C-H
     19       1       9       8      10 # C-C-H
     20       1       9       8      11 # C-C-H
     21       2      10       8      11 # H-C-H
     22       2      12       9      13 # H-C-H
     23       2      12       9      14 # H-C-H
     24       2      13       9      14 # H-C-H

Dihedrals

      1       1       1       2       3       6 # H-C-C-H
      2       1       1       2       3       7 # H-C-C-H
      3       2       1       2       3       8 # H-C-C-C
      4       3       2       3       8       9 # C-C-C-C
      5       2       2       3       8      10 # C-C-C-H
      6       2       2       3       8      11 # C-C-C-H
      7       2       3       8       9      12 # C-C-C-H
      8       2       3       8       9      13 # C-C-C-H
      9       2       3       8       9      14 # C-C-C-H
     10       1       4       2       3       6 # H-C-C-H
     11       1       4       2       3       7 # H-C-C-H
     12       2       4       2       3       8 # H-C-C-C
     13       1       5       2       3       6 # H-C-C-H
     14       1       5       2       3       7 # H-C-C-H
     15       2       5       2       3       8 # H-C-C-C
     16       2       6       3       8       9 # H-C-C-C
     17       1       6       3       8      10 # H-C-C-H
     18       1       6       3       8      11 # H-C-C-H
     19       2       7       3       8       9 # H-C-C-C
     20       1       7       3       8      10 # H-C-C-H
     21       1       7       3       8      11 # H-C-C-H
     22       1      10       8       9      12 # H-C-C-H
     23       1      10       8       9      13 # H-C-C-H
     24       1      10       8       9      14 # H-C-C-H
     25       1      11       8       9      12 # H-C-C-H
     26       1      11       8       9      13 # H-C-C-H
     27       1      11       8       9      14 # H-C-C-H
