ITEM: TIMESTEP
50500
ITEM: NUMBER OF ENTRIES
100
ITEM: BOX BOUNDS pp pp pp
0 32.5385
0 32.5385
0 32.5385
ITEM: ENTRIES c_ATYPE[*] c_ANGLE[*] 
1 137.839 
1 142.422 
1 122.094 
1 161.03 
1 160.864 
1 143.05 
1 130.133 
1 106.234 
1 148.534 
1 153.091 
1 130.554 
1 133.525 
1 131.033 
1 133.516 
1 139.818 
1 140.177 
1 178.638 
1 136.849 
1 162.786 
1 158.779 
1 119.606 
1 125.466 
1 147.447 
1 171.899 
1 153.407 
1 135.07 
1 154.004 
1 163.902 
1 134.336 
1 140.956 
1 141.45 
1 118.57 
1 169.019 
1 137.755 
1 143.65 
1 154.982 
1 132.718 
1 171.58 
1 121.993 
1 129.571 
1 146.985 
1 153.394 
1 131.205 
1 137.33 
1 174.693 
1 152.414 
1 139.642 
1 126.58 
1 146.202 
1 147.133 
1 129.32 
1 148.635 
1 159.28 
1 147.705 
1 161.565 
1 141.169 
1 139.019 
1 157.155 
1 125.8 
1 158.833 
1 117.182 
1 151.998 
1 145.368 
1 143.391 
1 131.262 
1 165.158 
1 113.149 
1 131.38 
1 155.996 
1 171.225 
1 128.501 
1 118.491 
1 153.462 
1 135.562 
1 144.802 
1 123.86 
1 138.114 
1 175.804 
1 165.723 
1 148.086 
1 135.939 
1 127.951 
1 156.638 
1 149.101 
1 115.734 
1 144.174 
1 144.144 
1 167.35 
1 167.586 
1 143.552 
1 134.561 
1 123.634 
1 117.317 
1 153.202 
1 167.059 
1 110.786 
1 147.499 
1 178.847 
1 138.155 
1 131.206 
ITEM: TIMESTEP
51000
ITEM: NUMBER OF ENTRIES
100
ITEM: BOX BOUNDS pp pp pp
0 32.5385
0 32.5385
0 32.5385
ITEM: ENTRIES c_ATYPE[*] c_ANGLE[*] 
1 144.654 
1 124.618 
1 141.041 
1 156.291 
1 147.477 
1 146.938 
1 100.628 
1 146.415 
1 161.143 
1 145.082 
1 125.326 
1 154.756 
1 140.867 
1 151.245 
1 130.82 
1 172.549 
1 157.93 
1 113.494 
1 160.363 
1 120.493 
1 152.299 
1 154.742 
1 120.059 
1 152.629 
1 139.09 
1 138.415 
1 138.324 
1 135.621 
1 140.598 
1 152.538 
1 111.641 
1 140.327 
1 134.202 
1 163.244 
1 164.988 
1 154.23 
1 134.995 
1 147.954 
1 161.414 
1 115.115 
1 121.447 
1 130.872 
1 154.551 
1 131.028 
1 116.293 
1 159.5 
1 153.869 
1 146.741 
1 134.385 
1 154.129 
1 135.907 
1 164.012 
1 126.707 
1 145.846 
1 148.912 
1 159.236 
1 126.05 
1 145.287 
1 149.131 
1 139.148 
1 144.003 
1 147.051 
1 140.073 
1 137.014 
1 148.74 
1 159.296 
1 121.391 
1 166.048 
1 144.934 
1 113.847 
1 125.525 
1 157.715 
1 154.636 
1 127.695 
1 127.589 
1 145.142 
1 107.34 
1 145.644 
1 147.755 
1 157.746 
1 145.631 
1 147.35 
1 146.165 
1 136.711 
1 154.961 
1 172.691 
1 168.5 
1 159.517 
1 145.365 
1 161.886 
1 121.197 
1 129.861 
1 136.993 
1 124.963 
1 118.666 
1 132.852 
1 150.209 
1 126.13 
1 149.316 
1 81.8624 
ITEM: TIMESTEP
51500
ITEM: NUMBER OF ENTRIES
100
ITEM: BOX BOUNDS pp pp pp
0 32.5385
0 32.5385
0 32.5385
ITEM: ENTRIES c_ATYPE[*] c_ANGLE[*] 
1 137.377 
1 124.354 
1 128.989 
1 153.072 
1 122.229 
1 137.602 
1 110.917 
1 165.048 
1 109.644 
1 117.199 
1 132.342 
1 159.788 
1 165.947 
1 130.408 
1 130.177 
1 147.281 
1 109.958 
1 151.334 
1 111.434 
1 164.499 
1 136.178 
1 144.219 
1 166.45 
1 139.821 
1 164.682 
1 130.368 
1 115.443 
1 122.254 
1 152.054 
1 126.582 
1 138.058 
1 144.834 
1 156.336 
1 156.833 
1 134.555 
1 159.4 
1 156.198 
1 120.248 
1 157.918 
1 115.426 
1 149.648 
1 146.245 
1 144.078 
1 170.084 
1 134.075 
1 149.33 
1 125.774 
1 138.967 
1 127.213 
1 146.541 
1 175.524 
1 124.667 
1 150.569 
1 134.422 
1 159.834 
1 98.9756 
1 145.714 
1 110.443 
1 123.759 
1 147.087 
1 152.827 
1 105.295 
1 173.794 
1 135.98 
1 172.952 
1 101.641 
1 152.553 
1 152.937 
1 154.079 
1 139.341 
1 166.317 
1 148.887 
1 124.407 
1 141.354 
1 119.554 
1 136.071 
1 148.332 
1 161.041 
1 100.232 
1 137.603 
1 117.522 
1 137.393 
1 156.148 
1 115.028 
1 153.904 
1 140.296 
1 146.942 
1 135.689 
1 131.117 
1 162.567 
1 130.537 
1 151.455 
1 131.546 
1 122.726 
1 161.449 
1 145.173 
1 169.89 
1 174.823 
1 153.361 
1 130.968 
ITEM: TIMESTEP
52000
ITEM: NUMBER OF ENTRIES
100
ITEM: BOX BOUNDS pp pp pp
0 32.5385
0 32.5385
0 32.5385
ITEM: ENTRIES c_ATYPE[*] c_ANGLE[*] 
1 138.044 
1 161.974 
1 129.408 
1 160.976 
1 129.168 
1 160.157 
1 114.807 
1 142.248 
1 123.335 
1 141.689 
1 147.719 
1 152.967 
1 133.233 
1 135.334 
1 147.031 
1 146.514 
1 148.664 
1 138.269 
1 126.309 
1 113.426 
1 154.335 
1 134.225 
1 128.937 
1 140.804 
1 124.819 
1 150.265 
1 144.462 
1 135.21 
1 166.308 
1 108.655 
1 157.378 
1 138.859 
1 132.133 
1 130.074 
1 148.435 
1 140.859 
1 158.158 
1 131.584 
1 95.4823 
1 132.623 
1 171.412 
1 135.511 
1 117.673 
1 167.116 
1 128.406 
1 135.164 
1 138.852 
1 111.196 
1 136.087 
1 148.885 
1 114.962 
1 122.475 
1 158.233 
1 131.801 
1 141.563 
1 146.749 
1 155.896 
1 139.402 
1 149.991 
1 116.898 
1 130.293 
1 166.96 
1 166.439 
1 134.584 
1 109.542 
1 122.115 
1 142.846 
1 143.035 
1 143.051 
1 123.215 
1 164.62 
1 139.294 
1 126.714 
1 152.258 
1 124.937 
1 152.155 
1 159.708 
1 158.011 
1 157.689 
1 161.243 
1 158.787 
1 139.207 
1 137.254 
1 138.748 
1 138.849 
1 112.974 
1 147.051 
1 154.268 
1 152.949 
1 126.639 
1 160.942 
1 133.045 
1 120.305 
1 168.651 
1 170.536 
1 114.002 
1 129.848 
1 134.075 
1 131.895 
1 141.035 
ITEM: TIMESTEP
52500
ITEM: NUMBER OF ENTRIES
100
ITEM: BOX BOUNDS pp pp pp
0 32.5385
0 32.5385
0 32.5385
ITEM: ENTRIES c_ATYPE[*] c_ANGLE[*] 
1 167.386 
1 170.544 
1 167.639 
1 138.666 
1 170.069 
1 112.068 
1 163.28 
1 108.776 
1 124.959 
1 150.234 
1 176.07 
1 161.685 
1 134.803 
1 134.89 
1 130.244 
1 168.583 
1 136.781 
1 117.011 
1 143.077 
1 127.663 
1 135.917 
1 148.435 
1 154.343 
1 123.622 
1 119.012 
1 152.387 
1 153.119 
1 160.622 
1 158.096 
1 161.942 
1 125.437 
1 128.444 
1 149.3 
1 156.537 
1 137.395 
1 110.271 
1 142.815 
1 117.347 
1 124.439 
1 120.614 
1 143.446 
1 157.796 
1 122.437 
1 138.087 
1 157.426 
1 121.381 
1 145.904 
1 152.778 
1 141.148 
1 160.727 
1 136.81 
1 125.876 
1 134.199 
1 121.347 
1 164.205 
1 123.994 
1 157.004 
1 159.734 
1 126.964 
1 133.479 
1 111.144 
1 137.781 
1 157.17 
1 130.041 
1 126.294 
1 156.822 
1 128.237 
1 147.568 
1 153.354 
1 141.42 
1 163.777 
1 125.229 
1 147.499 
1 120.322 
1 155.687 
1 160.502 
1 142.793 
1 99.2983 
1 142.974 
1 148.879 
1 127.907 
1 159.517 
1 111.62 
1 170.293 
1 167.328 
1 159.217 
1 142.002 
1 137.936 
1 170.591 
1 170.037 
1 137.55 
1 105.207 
1 150.486 
1 171.674 
1 168.582 
1 151.297 
1 156.399 
1 127.059 
1 152.995 
1 174.66 
ITEM: TIMESTEP
53000
ITEM: NUMBER OF ENTRIES
100
ITEM: BOX BOUNDS pp pp pp
0 32.5385
0 32.5385
0 32.5385
ITEM: ENTRIES c_ATYPE[*] c_ANGLE[*] 
1 147.963 
1 120.193 
1 131.396 
1 135.433 
1 121.797 
1 153.616 
1 141.559 
1 147.719 
1 120.827 
1 121.361 
1 152.344 
1 150.76 
1 130.376 
1 160.983 
1 122.008 
1 155.97 
1 109.052 
1 126.718 
1 130.027 
1 142.924 
1 156.211 
1 139.218 
1 147.399 
1 137.843 
1 123.594 
1 116.406 
1 141.614 
1 159.041 
1 134.872 
1 141.562 
1 121.343 
1 119.558 
1 130.507 
1 128.455 
1 124.94 
1 126.256 
1 153.427 
1 130.433 
1 129.182 
1 159.776 
1 176.461 
1 149.588 
1 164.615 
1 135.483 
1 149.125 
1 127.892 
1 139.414 
1 120.685 
1 140.957 
1 162.273 
1 136.112 
1 137.593 
1 170.387 
1 122.914 
1 151.285 
1 118.562 
1 134.879 
1 157.537 
1 97.9097 
1 166.771 
1 118.407 
1 132.03 
1 151.173 
1 151.182 
1 123.823 
1 168.19 
1 151.023 
1 134.02 
1 131.657 
1 132.58 
1 135.243 
1 175.645 
1 133.19 
1 149.104 
1 148.022 
1 156.086 
1 101.467 
1 161.835 
1 142.109 
1 132.612 
1 144.218 
1 105.829 
1 174.904 
1 169.276 
1 161.67 
1 122.264 
1 149.839 
1 159.596 
1 141.953 
1 132.987 
1 156.884 
1 110.715 
1 121.909 
1 141.45 
1 136.959 
1 163.577 
1 151.651 
1 150.023 
1 116.921 
1 175.041 
ITEM: TIMESTEP
53500
ITEM: NUMBER OF ENTRIES
100
ITEM: BOX BOUNDS pp pp pp
0 32.5385
0 32.5385
0 32.5385
ITEM: ENTRIES c_ATYPE[*] c_ANGLE[*] 
1 144.636 
1 129.98 
1 135.875 
1 106.908 
1 127.733 
1 175.131 
1 125.044 
1 124.943 
1 122.843 
1 150.133 
1 126.346 
1 164.057 
1 133.101 
1 140.102 
1 148.916 
1 136.933 
1 140.916 
1 150.536 
1 137.974 
1 149.652 
1 148.578 
1 160.068 
1 160.264 
1 123.589 
1 151.307 
1 143.887 
1 163.847 
1 138.06 
1 144.561 
1 159.783 
1 156.592 
1 158.241 
1 162.304 
1 160.667 
1 143.979 
1 145.094 
1 137.909 
1 113.169 
1 112.361 
1 165.184 
1 151.289 
1 113.47 
1 154.363 
1 138.138 
1 132.56 
1 131.302 
1 162.834 
1 96.4916 
1 126.236 
1 161.857 
1 157.187 
1 161.22 
1 132.668 
1 121.72 
1 118.816 
1 122.437 
1 131.63 
1 161.683 
1 129.982 
1 131.488 
1 130.685 
1 116.253 
1 144.489 
1 164.053 
1 161.139 
1 142.222 
1 118.095 
1 120.665 
1 138.484 
1 154.162 
1 170.306 
1 115.857 
1 159.753 
1 138.393 
1 129.379 
1 123.599 
1 158.651 
1 139.04 
1 135.331 
1 140.091 
1 165.633 
1 142.336 
1 143.48 
1 116.323 
1 141.367 
1 168.366 
1 117.131 
1 135.952 
1 140.308 
1 120.155 
1 142.174 
1 148.756 
1 122.313 
1 133.072 
1 149.193 
1 138.42 
1 123.44 
1 143.928 
1 103.463 
1 155.851 
ITEM: TIMESTEP
54000
ITEM: NUMBER OF ENTRIES
100
ITEM: BOX BOUNDS pp pp pp
0 32.5385
0 32.5385
0 32.5385
ITEM: ENTRIES c_ATYPE[*] c_ANGLE[*] 
1 146.825 
1 156.03 
1 160.986 
1 131.37 
1 158.11 
1 88.7204 
1 127.886 
1 153.191 
1 157.043 
1 144.107 
1 127.334 
1 133.004 
1 140.942 
1 143.469 
1 133.762 
1 115.086 
1 158.716 
1 142.656 
1 128.742 
1 145.97 
1 147.183 
1 162.171 
1 134.042 
1 133.363 
1 168.926 
1 149.729 
1 132.013 
1 140.199 
1 140.69 
1 133.773 
1 114.292 
1 176.706 
1 131.673 
1 126.556 
1 138.107 
1 135.464 
1 137.368 
1 167.109 
1 134.434 
1 141.498 
1 125.704 
1 123.992 
1 131.264 
1 157.568 
1 171.875 
1 161.898 
1 170.652 
1 119.926 
1 169.48 
1 132.955 
1 177.759 
1 135.342 
1 138.852 
1 169.214 
1 143.983 
1 161.811 
1 169.641 
1 112.667 
1 134.051 
1 160.078 
1 150.867 
1 123.955 
1 147.207 
1 130.548 
1 177.956 
1 143.004 
1 125.017 
1 159.784 
1 159.906 
1 126.335 
1 141.937 
1 124.238 
1 116.892 
1 138.77 
1 168.642 
1 127.825 
1 128.889 
1 128.662 
1 131.333 
1 150.042 
1 165.68 
1 112.72 
1 150.499 
1 154.424 
1 123.627 
1 158.02 
1 156.291 
1 157.851 
1 142.316 
1 155.038 
1 138.485 
1 149.376 
1 132.452 
1 133.562 
1 131.729 
1 154.749 
1 159.47 
1 125.97 
1 155.843 
1 122.56 
ITEM: TIMESTEP
54500
ITEM: NUMBER OF ENTRIES
100
ITEM: BOX BOUNDS pp pp pp
0 32.5385
0 32.5385
0 32.5385
ITEM: ENTRIES c_ATYPE[*] c_ANGLE[*] 
1 166.85 
1 138.021 
1 132.419 
1 119.9 
1 174.987 
1 151.881 
1 115.397 
1 113.829 
1 114.385 
1 136.557 
1 154.184 
1 153.052 
1 125.815 
1 110.317 
1 143.605 
1 130.094 
1 168.203 
1 104.928 
1 129.156 
1 103.281 
1 136.945 
1 113.356 
1 121.678 
1 107.663 
1 123.433 
1 149.715 
1 127.421 
1 137.088 
1 107.443 
1 158.944 
1 144.214 
1 168.287 
1 161.531 
1 131.859 
1 150.384 
1 91.2789 
1 122.925 
1 153.183 
1 132.273 
1 133.804 
1 120.48 
1 159.428 
1 153.715 
1 96.8414 
1 133.86 
1 166.696 
1 160.916 
1 146.271 
1 103.181 
1 145.719 
1 162.477 
1 150.004 
1 150.825 
1 151.978 
1 91.7124 
1 136.3 
1 115.886 
1 174.225 
1 142.822 
1 145.421 
1 138.477 
1 158.246 
1 138.836 
1 163.707 
1 162.632 
1 164.874 
1 127.091 
1 167.568 
1 131.986 
1 162.417 
1 121.469 
1 154.021 
1 155.403 
1 167.645 
1 111.485 
1 139.698 
1 129.511 
1 104.674 
1 133.63 
1 159.214 
1 137.249 
1 123.522 
1 158.3 
1 139.707 
1 123.56 
1 127.135 
1 132.284 
1 157.62 
1 148.791 
1 162.068 
1 132.597 
1 161.195 
1 144.176 
1 171.326 
1 147.71 
1 128.76 
1 146.178 
1 173.783 
1 149.188 
1 115.982 
ITEM: TIMESTEP
55000
ITEM: NUMBER OF ENTRIES
100
ITEM: BOX BOUNDS pp pp pp
0 32.5385
0 32.5385
0 32.5385
ITEM: ENTRIES c_ATYPE[*] c_ANGLE[*] 
1 160.998 
1 142.79 
1 159.657 
1 148.739 
1 159.671 
1 122.304 
1 119.236 
1 135.255 
1 139.98 
1 116.998 
1 110.26 
1 160.231 
1 136.382 
1 134.051 
1 137.076 
1 116.243 
1 133.643 
1 120.108 
1 122.773 
1 153.285 
1 131.532 
1 134.736 
1 137.426 
1 161.798 
1 132.38 
1 125.066 
1 115.53 
1 146.955 
1 141.681 
1 157.12 
1 159.568 
1 159.722 
1 107.244 
1 154.065 
1 172.355 
1 119.645 
1 144.001 
1 139.789 
1 126.701 
1 163.809 
1 111.285 
1 135.322 
1 140.432 
1 162.627 
1 124.775 
1 141.446 
1 145.425 
1 145.449 
1 156.011 
1 127.798 
1 164.821 
1 133.712 
1 154.599 
1 137.788 
1 154.641 
1 141.265 
1 122.239 
1 144.432 
1 135.146 
1 151.305 
1 152.108 
1 120.555 
1 126.92 
1 140.747 
1 142.624 
1 150.831 
1 121.685 
1 132.407 
1 125.835 
1 118.708 
1 140.13 
1 160.647 
1 139.815 
1 127.917 
1 125.571 
1 147.543 
1 117.821 
1 126.703 
1 135.456 
1 138.737 
1 149.405 
1 126.712 
1 156.586 
1 109.886 
1 152.651 
1 125.418 
1 138.036 
1 159.939 
1 155.488 
1 150.682 
1 146.757 
1 147.485 
1 130.113 
1 139.014 
1 139.878 
1 125.228 
1 135.203 
1 136.722 
1 147.506 
1 142.435 
ITEM: TIMESTEP
55500
ITEM: NUMBER OF ENTRIES
100
ITEM: BOX BOUNDS pp pp pp
0 32.5385
0 32.5385
0 32.5385
ITEM: ENTRIES c_ATYPE[*] c_ANGLE[*] 
1 175.232 
1 149.926 
1 146.091 
1 127.968 
1 168.395 
1 101.983 
1 156.513 
1 148.808 
1 132.258 
1 137.1 
1 148.451 
1 157.63 
1 149.719 
1 158.873 
1 138.76 
1 153.665 
1 131.976 
1 137.777 
1 135.214 
1 121.982 
1 141.52 
1 126.309 
1 149.668 
1 150.617 
1 145.473 
1 132.031 
1 148.117 
1 148.096 
1 146.373 
1 143.513 
1 125.608 
1 119.011 
1 126.205 
1 152.578 
1 150.524 
1 154.711 
1 140.859 
1 141.93 
1 108.586 
1 151.042 
1 148.539 
1 173.781 
1 171.762 
1 169.138 
1 154.417 
1 135.352 
1 134.042 
1 162.245 
1 162.979 
1 146.962 
1 174.861 
1 141.352 
1 141.41 
1 134.313 
1 139.026 
1 137.213 
1 153.451 
1 154.765 
1 151.13 
1 163.1 
1 133.786 
1 139.639 
1 169.461 
1 115.298 
1 121.884 
1 132.667 
1 131.045 
1 141.516 
1 130.788 
1 133.024 
1 120.616 
1 159.378 
1 125.472 
1 174.427 
1 119.326 
1 131.712 
1 145.645 
1 159.717 
1 139.286 
1 116.792 
1 160.476 
1 146.423 
1 143.396 
1 162.112 
1 168.879 
1 132.787 
1 135.432 
1 175.934 
1 149.192 
1 130.341 
1 150.493 
1 128.261 
1 146.308 
1 138.532 
1 163.539 
1 111.181 
1 154.137 
1 153.689 
1 169.987 
1 145.282 
ITEM: TIMESTEP
56000
ITEM: NUMBER OF ENTRIES
100
ITEM: BOX BOUNDS pp pp pp
0 32.5385
0 32.5385
0 32.5385
ITEM: ENTRIES c_ATYPE[*] c_ANGLE[*] 
1 93.4796 
1 127.125 
1 111.44 
1 169.268 
1 132.221 
1 145.927 
1 138.465 
1 122.255 
1 166.432 
1 145.272 
1 139.991 
1 141.649 
1 160.816 
1 148.762 
1 125.492 
1 112.344 
1 131.502 
1 148.833 
1 120.448 
1 130.756 
1 132.142 
1 161.74 
1 155.32 
1 154.262 
1 125.564 
1 171.178 
1 166.623 
1 154.427 
1 111.637 
1 153.296 
1 134.958 
1 96.8465 
1 92.0039 
1 134.407 
1 161.609 
1 156.32 
1 166.234 
1 148.38 
1 117.289 
1 118.59 
1 133.109 
1 110.972 
1 130.697 
1 156.723 
1 101.491 
1 151.457 
1 129.827 
1 131.829 
1 147.681 
1 124.561 
1 123.735 
1 144.725 
1 153.292 
1 141.49 
1 113.468 
1 149.83 
1 145.253 
1 146.115 
1 121.849 
1 159.243 
1 148.776 
1 171.016 
1 133.604 
1 129.539 
1 172.276 
1 133.751 
1 166.1 
1 120.374 
1 125.271 
1 147.031 
1 124.479 
1 148.64 
1 100.619 
1 153.437 
1 149.03 
1 125.965 
1 139.205 
1 125.867 
1 164.564 
1 161.015 
1 136.667 
1 125.329 
1 100.614 
1 128.32 
1 152.416 
1 163.902 
1 128.158 
1 129.797 
1 147.584 
1 155.841 
1 162.356 
1 129.357 
1 162.073 
1 120.847 
1 148.748 
1 148.933 
1 147.636 
1 142.494 
1 112.874 
1 122.297 
ITEM: TIMESTEP
56500
ITEM: NUMBER OF ENTRIES
100
ITEM: BOX BOUNDS pp pp pp
0 32.5385
0 32.5385
0 32.5385
ITEM: ENTRIES c_ATYPE[*] c_ANGLE[*] 
1 116.996 
1 146.808 
1 145.715 
1 135.636 
1 161.677 
1 167.594 
1 131.716 
1 128.278 
1 118.974 
1 112.8 
1 102.616 
1 115.848 
1 170.107 
1 115.571 
1 165.938 
1 157.702 
1 130.623 
1 120.77 
1 134.398 
1 132.797 
1 155.633 
1 171.255 
1 137.751 
1 125.485 
1 157.929 
1 173.447 
1 121.363 
1 153.851 
1 148.123 
1 153.613 
1 156.921 
1 134.875 
1 134.943 
1 177.929 
1 146.951 
1 141.293 
1 122.412 
1 174.919 
1 153.507 
1 142.459 
1 160.015 
1 146.416 
1 116.521 
1 123.705 
1 150.115 
1 105.59 
1 123.547 
1 162.761 
1 166.818 
1 138.846 
1 152.308 
1 152.554 
1 145.047 
1 113.647 
1 122.265 
1 132.359 
1 124.78 
1 119.841 
1 136.922 
1 156.982 
1 127.66 
1 149.315 
1 141.322 
1 160.582 
1 147.345 
1 145.817 
1 133.9 
1 127.013 
1 145.079 
1 129.738 
1 141.948 
1 136.616 
1 117.415 
1 134.064 
1 160.587 
1 109.641 
1 142.551 
1 147.066 
1 138.759 
1 133.412 
1 127.542 
1 129.201 
1 140.473 
1 147.411 
1 171.885 
1 115.2 
1 143.456 
1 142.157 
1 112.99 
1 131.452 
1 124.464 
1 148.573 
1 156.938 
1 170.006 
1 130.368 
1 103.225 
1 159.29 
1 160.613 
1 157.594 
1 145.454 
ITEM: TIMESTEP
57000
ITEM: NUMBER OF ENTRIES
100
ITEM: BOX BOUNDS pp pp pp
0 32.5385
0 32.5385
0 32.5385
ITEM: ENTRIES c_ATYPE[*] c_ANGLE[*] 
1 123.978 
1 126.473 
1 135.869 
1 135.277 
1 146.661 
1 132.521 
1 111.835 
1 125.293 
1 135.446 
1 155.636 
1 134.894 
1 173.007 
1 170.945 
1 128.885 
1 147.485 
1 128.813 
1 147.76 
1 128.461 
1 174.679 
1 126.964 
1 144.049 
1 136.002 
1 118.333 
1 153.911 
1 129.165 
1 154.253 
1 133.468 
1 164.792 
1 113.152 
1 131.293 
1 148.735 
1 139.573 
1 146.192 
1 128.768 
1 127.371 
1 172.636 
1 101.727 
1 135.685 
1 134.008 
1 150.074 
1 105.149 
1 112.806 
1 129.271 
1 146.451 
1 114.256 
1 171.215 
1 148.324 
1 154.985 
1 151.008 
1 141.334 
1 125.852 
1 164.524 
1 149.034 
1 142.851 
1 151.36 
1 157.489 
1 96.1173 
1 139.167 
1 125.12 
1 131.247 
1 145.978 
1 105.967 
1 146.121 
1 147.305 
1 120.532 
1 167.427 
1 119.502 
1 142.978 
1 146.429 
1 161.993 
1 155.532 
1 118.886 
1 148.202 
1 114.097 
1 127.85 
1 122.91 
1 133.331 
1 132.398 
1 159.695 
1 132.48 
1 131.693 
1 129.29 
1 161.396 
1 122.846 
1 121.535 
1 172.521 
1 134.053 
1 149.781 
1 166.73 
1 152.055 
1 126.492 
1 132.529 
1 113.582 
1 156.315 
1 128.36 
1 147.764 
1 138.118 
1 156.973 
1 143.552 
1 124.801 
ITEM: TIMESTEP
57500
ITEM: NUMBER OF ENTRIES
100
ITEM: BOX BOUNDS pp pp pp
0 32.5385
0 32.5385
0 32.5385
ITEM: ENTRIES c_ATYPE[*] c_ANGLE[*] 
1 166.767 
1 130.212 
1 112.636 
1 158.685 
1 152.294 
1 167.703 
1 150.777 
1 145.672 
1 137.781 
1 147.467 
1 153.309 
1 152.153 
1 127.235 
1 135.059 
1 164.677 
1 97.2375 
1 143.754 
1 138.833 
1 130.864 
1 133.95 
1 134.592 
1 166.952 
1 126.04 
1 124.874 
1 137.717 
1 139.167 
1 135.914 
1 124.954 
1 132.478 
1 159.015 
1 110.845 
1 154.795 
1 152.021 
1 130.212 
1 139.397 
1 136.393 
1 119.024 
1 171.208 
1 142.58 
1 134.643 
1 138.109 
1 141.747 
1 122.73 
1 117.388 
1 123.646 
1 160.044 
1 125.645 
1 125.683 
1 156.826 
1 129.837 
1 129.412 
1 133.261 
1 134.553 
1 140.391 
1 148.992 
1 132.584 
1 109.48 
1 138.834 
1 143.926 
1 124.508 
1 159.361 
1 178.899 
1 105.046 
1 128.917 
1 148.836 
1 149.541 
1 162.361 
1 139.74 
1 136.996 
1 113.721 
1 135.966 
1 131.066 
1 172.653 
1 136.529 
1 129.842 
1 137.036 
1 136.832 
1 152.483 
1 124.898 
1 137.859 
1 116.859 
1 165.768 
1 139.825 
1 150.984 
1 159.351 
1 121.08 
1 157.773 
1 125.73 
1 143.668 
1 146.701 
1 137.352 
1 151.765 
1 151.565 
1 173.285 
1 140.863 
1 143.1 
1 161.549 
1 106.316 
1 131.878 
1 176.13 
ITEM: TIMESTEP
58000
ITEM: NUMBER OF ENTRIES
100
ITEM: BOX BOUNDS pp pp pp
0 32.5385
0 32.5385
0 32.5385
ITEM: ENTRIES c_ATYPE[*] c_ANGLE[*] 
1 144.938 
1 121.939 
1 130.402 
1 163.751 
1 124.908 
1 121.24 
1 130.607 
1 112.068 
1 159.402 
1 107.024 
1 169.581 
1 134.027 
1 159.539 
1 144.874 
1 178.632 
1 170.928 
1 156.241 
1 113.618 
1 121.804 
1 141.895 
1 131.435 
1 156.739 
1 136.185 
1 163.948 
1 137.913 
1 128.332 
1 119.879 
1 132.223 
1 171.148 
1 123.297 
1 160.841 
1 161.768 
1 125.22 
1 148.474 
1 120.684 
1 128.196 
1 146.507 
1 146.153 
1 145.504 
1 107.559 
1 135.351 
1 164.388 
1 167.564 
1 124.639 
1 120.084 
1 147.037 
1 117.049 
1 91.2972 
1 127.193 
1 124.687 
1 120.479 
1 166.798 
1 131.072 
1 130.76 
1 143.654 
1 150.867 
1 155.663 
1 167.192 
1 132.529 
1 154.778 
1 164.348 
1 148.403 
1 140.708 
1 123.121 
1 123.5 
1 155.376 
1 133.213 
1 117.938 
1 130.068 
1 152.768 
1 145.071 
1 107.823 
1 130.931 
1 106.544 
1 165.617 
1 160.03 
1 124.356 
1 143.792 
1 153.503 
1 110.113 
1 168.406 
1 123.891 
1 122.474 
1 145.049 
1 154.732 
1 125.101 
1 157.854 
1 153.008 
1 168.912 
1 120.918 
1 141.425 
1 127.051 
1 136.254 
1 167.344 
1 165.244 
1 130.44 
1 109.673 
1 162.07 
1 104.731 
1 149.811 
ITEM: TIMESTEP
58500
ITEM: NUMBER OF ENTRIES
100
ITEM: BOX BOUNDS pp pp pp
0 32.5385
0 32.5385
0 32.5385
ITEM: ENTRIES c_ATYPE[*] c_ANGLE[*] 
1 144.362 
1 100.846 
1 134.977 
1 151.088 
1 133.881 
1 139.573 
1 121.443 
1 142.351 
1 155.769 
1 160.292 
1 140.706 
1 139.74 
1 129.023 
1 126.527 
1 136.19 
1 143.497 
1 154.211 
1 117.198 
1 145.953 
1 118.88 
1 127.833 
1 126.789 
1 159.841 
1 132.481 
1 139.424 
1 132.205 
1 115.853 
1 162.015 
1 158.234 
1 146.964 
1 147.844 
1 102.701 
1 122.302 
1 170.269 
1 139.801 
1 114.609 
1 137.786 
1 121.292 
1 131.406 
1 128.773 
1 129.341 
1 159.759 
1 136.361 
1 167.042 
1 150.216 
1 152.23 
1 172.236 
1 154.466 
1 121.777 
1 138.407 
1 170.838 
1 135.347 
1 151.222 
1 151.067 
1 142.409 
1 156.382 
1 130.451 
1 144.042 
1 154.285 
1 139.532 
1 162.4 
1 145.512 
1 116.433 
1 124.655 
1 158.324 
1 132.409 
1 146.609 
1 147.744 
1 136.6 
1 138.007 
1 128.81 
1 126.223 
1 132.096 
1 155.828 
1 156.024 
1 135.722 
1 173.144 
1 139.242 
1 166.405 
1 144.636 
1 138.135 
1 154.074 
1 140.409 
1 154.746 
1 134.871 
1 139.119 
1 116.053 
1 118.651 
1 157.904 
1 141.867 
1 120.667 
1 119.962 
1 148.083 
1 140.871 
1 119.224 
1 159.591 
1 142.221 
1 134.677 
1 108.158 
1 145.603 
ITEM: TIMESTEP
59000
ITEM: NUMBER OF ENTRIES
100
ITEM: BOX BOUNDS pp pp pp
0 32.5385
0 32.5385
0 32.5385
ITEM: ENTRIES c_ATYPE[*] c_ANGLE[*] 
1 151.684 
1 159.731 
1 147.979 
1 141.636 
1 122.572 
1 154.462 
1 147.01 
1 161.69 
1 129.091 
1 159.391 
1 150.121 
1 142.845 
1 159.373 
1 164.769 
1 152.285 
1 135.023 
1 161.084 
1 126.558 
1 135.937 
1 127.604 
1 165.521 
1 133.555 
1 168.462 
1 122.86 
1 131.982 
1 168.611 
1 153.411 
1 121.026 
1 115.281 
1 132.292 
1 144.633 
1 131.79 
1 148.828 
1 177.367 
1 132.138 
1 154.16 
1 161.24 
1 135.297 
1 140.334 
1 133.984 
1 142.836 
1 165.791 
1 143.72 
1 161.062 
1 162.566 
1 144.935 
1 150.67 
1 125.327 
1 139.497 
1 129.471 
1 157.46 
1 105.433 
1 170.569 
1 147.335 
1 131.758 
1 137.335 
1 140.75 
1 154.588 
1 124.528 
1 115.777 
1 128.282 
1 136.545 
1 133.848 
1 129.768 
1 176.745 
1 152.618 
1 132.976 
1 172.115 
1 164.911 
1 145.39 
1 120.963 
1 129.082 
1 148.653 
1 136.913 
1 131.371 
1 153.303 
1 123.425 
1 154.053 
1 134.091 
1 152.233 
1 135.977 
1 117.19 
1 120.751 
1 148.734 
1 113.363 
1 150.485 
1 161.7 
1 150.475 
1 143.429 
1 143.205 
1 146.03 
1 145.594 
1 140.127 
1 156.542 
1 120.121 
1 123.3 
1 141.497 
1 150.51 
1 163.005 
1 136.676 
ITEM: TIMESTEP
59500
ITEM: NUMBER OF ENTRIES
100
ITEM: BOX BOUNDS pp pp pp
0 32.5385
0 32.5385
0 32.5385
ITEM: ENTRIES c_ATYPE[*] c_ANGLE[*] 
1 142.183 
1 131.127 
1 105.595 
1 135.075 
1 170.131 
1 175.716 
1 131.955 
1 116.356 
1 101.352 
1 112.765 
1 131.052 
1 152.252 
1 138.026 
1 129.765 
1 163.538 
1 134.367 
1 155.872 
1 168.344 
1 100.801 
1 143.073 
1 131.219 
1 160.786 
1 145.203 
1 156.111 
1 144.251 
1 126.655 
1 116.717 
1 151.659 
1 154.218 
1 145.691 
1 140.254 
1 133.596 
1 129.956 
1 144.508 
1 137.593 
1 148.424 
1 146.683 
1 141.619 
1 140.034 
1 170.269 
1 158.72 
1 109.6 
1 144.789 
1 132.518 
1 153.68 
1 139.916 
1 149.258 
1 172.454 
1 145.873 
1 116.102 
1 175.711 
1 176.226 
1 166.813 
1 149.395 
1 142.928 
1 141.548 
1 151.583 
1 119.843 
1 108.99 
1 144.178 
1 149.807 
1 137.443 
1 145.099 
1 149.385 
1 136.564 
1 160.163 
1 136.254 
1 142.193 
1 126.916 
1 156.933 
1 168.583 
1 144.947 
1 139.271 
1 157.391 
1 141.439 
1 150.117 
1 126.881 
1 153.775 
1 144.583 
1 109.109 
1 131.651 
1 147.722 
1 136.685 
1 154.952 
1 114.016 
1 146.852 
1 114.975 
1 152.683 
1 150.999 
1 147.425 
1 144.089 
1 151.958 
1 144.879 
1 164.201 
1 146.076 
1 135.945 
1 163.358 
1 126.469 
1 132.557 
1 99.4326 
ITEM: TIMESTEP
60000
ITEM: NUMBER OF ENTRIES
100
ITEM: BOX BOUNDS pp pp pp
0 32.5385
0 32.5385
0 32.5385
ITEM: ENTRIES c_ATYPE[*] c_ANGLE[*] 
1 132.262 
1 140.829 
1 131.881 
1 126.535 
1 157.894 
1 130.639 
1 163.775 
1 152.486 
1 117.682 
1 148.585 
1 151.996 
1 108.492 
1 148.093 
1 135.524 
1 125.018 
1 122.523 
1 127.279 
1 158.861 
1 121.734 
1 141.789 
1 104.584 
1 108.859 
1 125.22 
1 143.229 
1 140.887 
1 135.841 
1 140.91 
1 124.364 
1 114.305 
1 124.247 
1 114.475 
1 129.265 
1 138.441 
1 139.059 
1 127.014 
1 165.383 
1 136.982 
1 174.863 
1 123.986 
1 153.066 
1 162.716 
1 137.91 
1 109.575 
1 125.062 
1 128.598 
1 150.336 
1 150.794 
1 167.311 
1 131.191 
1 138.268 
1 116.438 
1 99.5344 
1 137.593 
1 103.746 
1 134.054 
1 125.44 
1 137.402 
1 135.914 
1 144.298 
1 122.732 
1 140.47 
1 144.589 
1 158.885 
1 139.881 
1 124.265 
1 105.843 
1 143.87 
1 160.811 
1 137.967 
1 152.157 
1 118.307 
1 118.015 
1 147.163 
1 177.339 
1 120.404 
1 125.418 
1 155.468 
1 158.545 
1 120.743 
1 111.914 
1 119.328 
1 145.469 
1 121.497 
1 113.265 
1 134.284 
1 132.829 
1 173.35 
1 127.758 
1 176.733 
1 164.012 
1 131.01 
1 130.557 
1 137.459 
1 132.63 
1 174.393 
1 164.201 
1 170.917 
1 166.789 
1 149.497 
1 172.634 
ITEM: TIMESTEP
60500
ITEM: NUMBER OF ENTRIES
100
ITEM: BOX BOUNDS pp pp pp
0 32.5385
0 32.5385
0 32.5385
ITEM: ENTRIES c_ATYPE[*] c_ANGLE[*] 
1 153.93 
1 158.523 
1 153.907 
1 170.499 
1 170.815 
1 174.774 
1 139.898 
1 135.431 
1 136.056 
1 141.766 
1 119.006 
1 166.615 
1 154.209 
1 116.947 
1 138.318 
1 137.802 
1 120.179 
1 132.792 
1 117.362 
1 108.987 
1 116.217 
1 140.277 
1 136.917 
1 117.96 
1 164.682 
1 162.244 
1 163.069 
1 136.273 
1 154.983 
1 128.397 
1 146.298 
1 136.046 
1 168.651 
1 116.338 
1 161.255 
1 159.951 
1 139.366 
1 169.053 
1 150.48 
1 124.933 
1 121.449 
1 137.225 
1 170.464 
1 139.328 
1 141.476 
1 146.949 
1 164.93 
1 112.305 
1 170.598 
1 176.035 
1 122.897 
1 127.878 
1 144.846 
1 165.354 
1 156.728 
1 123.315 
1 170.678 
1 134.061 
1 148.552 
1 127.903 
1 169.044 
1 152.484 
1 137.885 
1 143.047 
1 122.513 
1 157.052 
1 160.997 
1 135.536 
1 134.789 
1 146.059 
1 120.103 
1 155.21 
1 134.241 
1 143.899 
1 138.156 
1 133.974 
1 153.272 
1 156.821 
1 135.162 
1 120.577 
1 156.604 
1 155.231 
1 136.278 
1 131.079 
1 118.207 
1 166.488 
1 149.248 
1 162.157 
1 143.748 
1 129.513 
1 153.967 
1 126.118 
1 106.948 
1 123.771 
1 161.035 
1 158.107 
1 124.179 
1 129.834 
1 142.557 
1 131.938 
ITEM: TIMESTEP
61000
ITEM: NUMBER OF ENTRIES
100
ITEM: BOX BOUNDS pp pp pp
0 32.5385
0 32.5385
0 32.5385
ITEM: ENTRIES c_ATYPE[*] c_ANGLE[*] 
1 139.878 
1 156.503 
1 147.634 
1 153.25 
1 154.862 
1 136.298 
1 123.682 
1 116.618 
1 128.619 
1 138.431 
1 174.942 
1 122.141 
1 157.16 
1 135.276 
1 143.713 
1 146.571 
1 137.375 
1 155.442 
1 153.992 
1 157.915 
1 143.322 
1 147.312 
1 146.389 
1 158.491 
1 115.748 
1 115.089 
1 150.775 
1 132.585 
1 150.578 
1 148.256 
1 140.603 
1 126.784 
1 119.012 
1 154.043 
1 151.502 
1 143.959 
1 123.009 
1 143.053 
1 153.739 
1 157.867 
1 138.338 
1 150.935 
1 147.446 
1 146.193 
1 138.604 
1 157.701 
1 132.547 
1 128.908 
1 144.842 
1 127.853 
1 147.766 
1 115.141 
1 137.396 
1 152.869 
1 136.335 
1 149.31 
1 125.314 
1 161.656 
1 100.489 
1 136.789 
1 146.132 
1 137.143 
1 149.774 
1 163.929 
1 152.832 
1 148.897 
1 127.485 
1 169.797 
1 141.018 
1 151.094 
1 134.805 
1 133.784 
1 149.134 
1 149.042 
1 152.188 
1 153.948 
1 132.099 
1 135.347 
1 144.996 
1 136.148 
1 127.325 
1 134.164 
1 116.546 
1 174.958 
1 130.878 
1 121.358 
1 148.648 
1 161.321 
1 151.97 
1 147.584 
1 110.577 
1 129.998 
1 118.252 
1 134.15 
1 137.325 
1 141.765 
1 129.11 
1 165.679 
1 154.981 
1 169.871 
ITEM: TIMESTEP
61500
ITEM: NUMBER OF ENTRIES
100
ITEM: BOX BOUNDS pp pp pp
0 32.5385
0 32.5385
0 32.5385
ITEM: ENTRIES c_ATYPE[*] c_ANGLE[*] 
1 130.385 
1 164.486 
1 162.742 
1 157.247 
1 154.997 
1 124.345 
1 119.543 
1 135.37 
1 139.636 
1 136.428 
1 121.066 
1 116.731 
1 173.065 
1 104.944 
1 142.25 
1 154.282 
1 146.941 
1 163.156 
1 138.058 
1 124.129 
1 146.825 
1 176.192 
1 153.455 
1 147.987 
1 114.809 
1 146.125 
1 122.832 
1 129.11 
1 139.035 
1 137.488 
1 141.981 
1 133.498 
1 143.593 
1 134.813 
1 150.369 
1 157.744 
1 140.696 
1 143.983 
1 153.335 
1 133.25 
1 146.247 
1 128.796 
1 136.946 
1 130.271 
1 152.078 
1 127.684 
1 148.051 
1 142.311 
1 150.819 
1 133.96 
1 171.724 
1 150.752 
1 156.981 
1 177.874 
1 134.68 
1 138.886 
1 129.251 
1 138.245 
1 146.613 
1 127.016 
1 134.987 
1 142.661 
1 145.132 
1 135.013 
1 163.642 
1 134.078 
1 164.251 
1 124.915 
1 137.4 
1 107.982 
1 168.064 
1 139.224 
1 129.719 
1 98.3872 
1 166.609 
1 124.575 
1 157.305 
1 141.286 
1 144.058 
1 145.078 
1 138.923 
1 172.106 
1 134.325 
1 146.811 
1 165.523 
1 123.012 
1 140.876 
1 147.794 
1 126.564 
1 145.841 
1 110.575 
1 167.139 
1 153.98 
1 117.049 
1 164.739 
1 177.381 
1 139.729 
1 139.794 
1 131.785 
1 139.837 
ITEM: TIMESTEP
62000
ITEM: NUMBER OF ENTRIES
100
ITEM: BOX BOUNDS pp pp pp
0 32.5385
0 32.5385
0 32.5385
ITEM: ENTRIES c_ATYPE[*] c_ANGLE[*] 
1 95.3546 
1 110.6 
1 141.212 
1 119.704 
1 141.83 
1 115.851 
1 109.439 
1 139.143 
1 162.584 
1 114.117 
1 145.251 
1 156.745 
1 151.351 
1 132.783 
1 150.42 
1 128.916 
1 125.558 
1 159.23 
1 145.504 
1 144.067 
1 143.693 
1 160.827 
1 168.874 
1 117.608 
1 142.058 
1 139.918 
1 138.824 
1 136.914 
1 146.429 
1 136.68 
1 144.371 
1 141.358 
1 142.648 
1 133.998 
1 118.779 
1 121.29 
1 126.087 
1 140.271 
1 136.979 
1 142.948 
1 128.232 
1 154.893 
1 141.901 
1 133.541 
1 140.284 
1 151.222 
1 163.851 
1 150.623 
1 146.806 
1 142.138 
1 121.75 
1 94.1834 
1 162.085 
1 109.501 
1 164.745 
1 130.339 
1 147.436 
1 117.564 
1 142.36 
1 134.066 
1 146.797 
1 166.439 
1 145.573 
1 113.694 
1 131.38 
1 169.924 
1 124.235 
1 112.85 
1 125.045 
1 154.112 
1 147.729 
1 125.922 
1 122.523 
1 125.078 
1 152.137 
1 159.444 
1 140.102 
1 137.345 
1 128.1 
1 148.467 
1 143.054 
1 162.584 
1 169.613 
1 165.309 
1 145.127 
1 143.967 
1 141.527 
1 145.499 
1 124.667 
1 135.969 
1 144.125 
1 157.881 
1 143.435 
1 122.751 
1 144.942 
1 123.856 
1 114.429 
1 119.752 
1 164.247 
1 165.512 
ITEM: TIMESTEP
62500
ITEM: NUMBER OF ENTRIES
100
ITEM: BOX BOUNDS pp pp pp
0 32.5385
0 32.5385
0 32.5385
ITEM: ENTRIES c_ATYPE[*] c_ANGLE[*] 
1 149.677 
1 135.41 
1 134.439 
1 133.664 
1 110.844 
1 160.613 
1 161.296 
1 132.526 
1 142.45 
1 121.458 
1 142.208 
1 158.895 
1 153.212 
1 142.845 
1 152.906 
1 157.548 
1 150.447 
1 126.909 
1 127.52 
1 170.454 
1 165.076 
1 99.6352 
1 126.059 
1 151.461 
1 161.417 
1 157.185 