ITEM: TIMESTEP
50500
ITEM: NUMBER OF ENTRIES
100
ITEM: BOX BOUNDS pp pp pp
0 32.5475
0 32.5475
0 32.5475
ITEM: ENTRIES c_ATYPE[*] c_ANGLE[*] 
1 145.087 
1 170.229 
1 115.663 
1 121.988 
1 130.171 
1 140.028 
1 137.96 
1 117.497 
1 154.854 
1 167.967 
1 160.688 
1 136.9 
1 123.782 
1 139.704 
1 152.621 
1 164.438 
1 157.073 
1 139.748 
1 124.269 
1 139.411 
1 161.309 
1 122.518 
1 143.16 
1 166.869 
1 152.524 
1 110.441 
1 152.037 
1 172.718 
1 144.355 
1 177.235 
1 159.914 
1 169.173 
1 130.193 
1 132.448 
1 160.244 
1 98.9005 
1 126.981 
1 145.125 
1 155.942 
1 153.172 
1 171.614 
1 162.965 
1 135.529 
1 137.431 
1 123.226 
1 109.76 
1 119.608 
1 126.034 
1 134.756 
1 131.624 
1 143.564 
1 134.421 
1 151.588 
1 165.033 
1 126.836 
1 150.23 
1 127.203 
1 146.005 
1 118.115 
1 151.348 
1 130.713 
1 161.244 
1 151.292 
1 164.503 
1 134.763 
1 120.363 
1 146.833 
1 113.435 
1 151.818 
1 128.13 
1 144.539 
1 153.41 
1 127.252 
1 127.236 
1 130.279 
1 132.306 
1 147.258 
1 111.057 
1 148.645 
1 135.582 
1 112.276 
1 126.562 
1 142.725 
1 125.488 
1 127.308 
1 149.341 
1 142.933 
1 134.284 
1 105.913 
1 145.685 
1 129.118 
1 141.846 
1 179.538 
1 152.906 
1 124.225 
1 131.134 
1 148.865 
1 137.472 
1 143.039 
1 158.018 
ITEM: TIMESTEP
51000
ITEM: NUMBER OF ENTRIES
100
ITEM: BOX BOUNDS pp pp pp
0 32.5475
0 32.5475
0 32.5475
ITEM: ENTRIES c_ATYPE[*] c_ANGLE[*] 
1 141.656 
1 121.32 
1 153.176 
1 157.663 
1 149.305 
1 120.447 
1 142.5 
1 96.843 
1 130.336 
1 132.302 
1 124.452 
1 117.301 
1 129.654 
1 173.667 
1 124.053 
1 148.409 
1 122.729 
1 135.78 
1 145.891 
1 128.483 
1 141.13 
1 140.307 
1 154.185 
1 134.124 
1 157.964 
1 114.566 
1 150.083 
1 158.659 
1 156.002 
1 144.074 
1 153.406 
1 149.436 
1 154.475 
1 127.012 
1 174.772 
1 164.534 
1 124.215 
1 148.642 
1 144.445 
1 138.537 
1 141.282 
1 130.746 
1 140.016 
1 127.536 
1 177.54 
1 130.865 
1 114.166 
1 127.219 
1 137.502 
1 142.693 
1 102.911 
1 164.291 
1 144.956 
1 135.39 
1 168.272 
1 151.582 
1 134.852 
1 175.875 
1 148.815 
1 135.007 
1 125.782 
1 166.771 
1 113.676 
1 154.5 
1 130.799 
1 126.891 
1 175.681 
1 176.905 
1 127.567 
1 119.568 
1 174.745 
1 142.185 
1 160.084 
1 104.683 
1 148.856 
1 132.616 
1 137.653 
1 132.495 
1 139.976 
1 144.596 
1 144.002 
1 169.555 
1 136.457 
1 135.177 
1 124.948 
1 157.565 
1 107.101 
1 131.392 
1 161.8 
1 125.487 
1 125.486 
1 135.265 
1 152.177 
1 112.417 
1 137.331 
1 125.218 
1 165.943 
1 140.225 
1 163.241 
1 136.362 
ITEM: TIMESTEP
51500
ITEM: NUMBER OF ENTRIES
100
ITEM: BOX BOUNDS pp pp pp
0 32.5475
0 32.5475
0 32.5475
ITEM: ENTRIES c_ATYPE[*] c_ANGLE[*] 
1 134.453 
1 131.338 
1 155.191 
1 163.979 
1 116.27 
1 136.71 
1 126.221 
1 161.975 
1 122.953 
1 165.331 
1 130.808 
1 151.12 
1 125.676 
1 124.014 
1 154.674 
1 111.458 
1 131.131 
1 102.313 
1 124.621 
1 149.646 
1 156.717 
1 127.204 
1 109.38 
1 100.993 
1 132.132 
1 166.692 
1 165.861 
1 170.874 
1 129.179 
1 131.5 
1 145.14 
1 122.987 
1 143.595 
1 166.595 
1 130.165 
1 149.553 
1 144.776 
1 150.548 
1 164.029 
1 131.993 
1 100.272 
1 138.514 
1 160.008 
1 115.784 
1 139.636 
1 139.953 
1 160.179 
1 164.173 
1 160.189 
1 130.52 
1 117.88 
1 143.857 
1 117.502 
1 143.846 
1 153.112 
1 136.466 
1 149.268 
1 155.702 
1 159.998 
1 147.181 
1 165.016 
1 141.27 
1 132.496 
1 144.89 
1 120.777 
1 140.74 
1 144.599 
1 142.196 
1 129.187 
1 175.191 
1 154.417 
1 164.079 
1 138.296 
1 139.211 
1 150.131 
1 134.865 
1 152.923 
1 89.7105 
1 137.838 
1 131.859 
1 129.085 
1 165.977 
1 150.672 
1 156.198 
1 133.224 
1 120.314 
1 152.313 
1 124.308 
1 156.862 
1 133.227 
1 153.07 
1 171.493 
1 141.382 
1 115.795 
1 130.733 
1 162.596 
1 142.593 
1 157.37 
1 143.142 
1 132.217 
ITEM: TIMESTEP
52000
ITEM: NUMBER OF ENTRIES
100
ITEM: BOX BOUNDS pp pp pp
0 32.5475
0 32.5475
0 32.5475
ITEM: ENTRIES c_ATYPE[*] c_ANGLE[*] 
1 130.414 
1 167.22 
1 171.292 
1 121.622 
1 125.975 
1 130.691 
1 114.971 
1 160.033 
1 149.466 
1 126.876 
1 133.84 
1 134.275 
1 125.689 
1 175.352 
1 143.053 
1 127.485 
1 117.133 
1 112.025 
1 145.349 
1 144.926 
1 157.127 
1 123.584 
1 148.595 
1 117.975 
1 128.887 
1 141.971 
1 137.172 
1 152.595 
1 158.621 
1 148.544 
1 99.9688 
1 120.435 
1 159.991 
1 161.186 
1 161.668 
1 145.696 
1 83.5264 
1 141.468 
1 134.297 
1 148.735 
1 153.56 
1 164.395 
1 142.374 
1 110.21 
1 154.461 
1 164.433 
1 148.684 
1 149.579 
1 127.792 
1 139.445 
1 129.602 
1 147.33 
1 154.027 
1 132.659 
1 146.662 
1 157.376 
1 158.442 
1 153.8 
1 107.375 
1 145.26 
1 116.371 
1 171.224 
1 171.627 
1 135.649 
1 155.283 
1 125.585 
1 128.329 
1 160.804 
1 130.128 
1 137.609 
1 167.592 
1 149.152 
1 165.334 
1 165.498 
1 148.229 
1 143.755 
1 143.736 
1 130.383 
1 144.233 
1 134.118 
1 162.569 
1 172.019 
1 132.841 
1 149.292 
1 130.792 
1 133.418 
1 168.983 
1 129.316 
1 140.563 
1 147.264 
1 151.979 
1 133.376 
1 148.926 
1 152.279 
1 171.376 
1 159.068 
1 164.355 
1 151.837 
1 129.65 
1 133.169 
ITEM: TIMESTEP
52500
ITEM: NUMBER OF ENTRIES
100
ITEM: BOX BOUNDS pp pp pp
0 32.5475
0 32.5475
0 32.5475
ITEM: ENTRIES c_ATYPE[*] c_ANGLE[*] 
1 125.436 
1 162.593 
1 119.247 
1 147.621 
1 166.153 
1 126.74 
1 165.529 
1 122.271 
1 106.77 
1 154.363 
1 158.462 
1 169.165 
1 134.247 
1 156.143 
1 174.131 
1 134.57 
1 153.433 
1 136.309 
1 162.267 
1 130.634 
1 150.243 
1 146.198 
1 124.402 
1 152.688 
1 139.173 
1 158.743 
1 110.554 
1 162.515 
1 143.702 
1 124.601 
1 161.569 
1 149.501 
1 167.697 
1 109.399 
1 159.441 
1 125.518 
1 119.618 
1 144.492 
1 109.805 
1 148.761 
1 164.177 
1 165.203 
1 156.602 
1 123.783 
1 169.444 
1 144.709 
1 143.413 
1 157.121 
1 147.295 
1 138.814 
1 112.749 
1 153.962 
1 129.554 
1 147.384 
1 119.724 
1 147.214 
1 149.316 
1 121.572 
1 140.305 
1 135.168 
1 127.854 
1 161.244 
1 132.323 
1 126.407 
1 110.924 
1 124.949 
1 113.472 
1 106.714 
1 147.248 
1 118.397 
1 118.522 
1 122.306 
1 148.648 
1 112.223 
1 143.718 
1 177.455 
1 158.137 
1 150.967 
1 120.619 
1 134.543 
1 128.48 
1 122.32 
1 161.661 
1 148.719 
1 131.364 
1 151.921 
1 145.074 
1 161.081 
1 147.726 
1 138.865 
1 160.946 
1 144.964 
1 155.801 
1 137.82 
1 139.35 
1 119.829 
1 122.528 
1 152.833 
1 144.247 
1 118.75 
ITEM: TIMESTEP
53000
ITEM: NUMBER OF ENTRIES
100
ITEM: BOX BOUNDS pp pp pp
0 32.5475
0 32.5475
0 32.5475
ITEM: ENTRIES c_ATYPE[*] c_ANGLE[*] 
1 149.998 
1 128.605 
1 140.413 
1 107.265 
1 134.003 
1 146.127 
1 154.053 
1 148.428 
1 156.938 
1 136.243 
1 171.383 
1 135.193 
1 137.078 
1 150.615 
1 155.694 
1 135.436 
1 140.621 
1 127.612 
1 132.939 
1 105.599 
1 158.752 
1 117.93 
1 136.927 
1 144.537 
1 168.585 
1 142.922 
1 139.693 
1 141.069 
1 145.052 
1 132.557 
1 144.503 
1 155.504 
1 131.046 
1 149.887 
1 120.142 
1 150.339 
1 135.991 
1 118.683 
1 133.764 
1 144.183 
1 132.36 
1 153.399 
1 138.973 
1 125.567 
1 121.64 
1 123.606 
1 153.911 
1 147.698 
1 139.969 
1 145.397 
1 158.991 
1 148.053 
1 129.333 
1 124.071 
1 137.643 
1 147.893 
1 158.343 
1 134.616 
1 166.145 
1 113.361 
1 105.942 
1 130.855 
1 169.962 
1 138.448 
1 96.3723 
1 125.141 
1 138.693 
1 117.684 
1 139.263 
1 174.212 
1 149.073 
1 147.335 
1 162.011 
1 135.029 
1 141.289 
1 166.208 
1 115.324 
1 108.783 
1 133.127 
1 124.597 
1 150.086 
1 161.487 
1 138.347 
1 145.463 
1 136.052 
1 152.585 
1 123.94 
1 142.802 
1 153.363 
1 179.269 
1 146.315 
1 120.317 
1 123.866 
1 142.926 
1 142.334 
1 132.214 
1 141.826 
1 160.517 
1 79.1384 
1 126.722 
ITEM: TIMESTEP
53500
ITEM: NUMBER OF ENTRIES
100
ITEM: BOX BOUNDS pp pp pp
0 32.5475
0 32.5475
0 32.5475
ITEM: ENTRIES c_ATYPE[*] c_ANGLE[*] 
1 121.478 
1 125.694 
1 131.407 
1 161.689 
1 115.495 
1 146.631 
1 146.404 
1 155.139 
1 153.661 
1 127.547 
1 131.675 
1 121.002 
1 131.801 
1 120.476 
1 147.674 
1 141.287 
1 146.845 
1 162.978 
1 162.874 
1 129.823 
1 163.78 
1 135.48 
1 119.649 
1 156.778 
1 139.865 
1 129.735 
1 138.737 
1 140.259 
1 117.975 
1 158.3 
1 141.118 
1 136.373 
1 132.873 
1 133.311 
1 133.66 
1 141.247 
1 139.193 
1 138.441 
1 147.745 
1 164.93 
1 140.676 
1 128.315 
1 161.909 
1 162.6 
1 147.434 
1 157.471 
1 159.472 
1 155 
1 111.752 
1 106.154 
1 156.904 
1 119.685 
1 120.639 
1 137.357 
1 137.396 
1 117.29 
1 171.721 
1 123.035 
1 135.008 
1 140.367 
1 141.781 
1 117.934 
1 131.887 
1 125.674 
1 153.248 
1 131.653 
1 164.945 
1 129.247 
1 143.769 
1 150.739 
1 134.89 
1 148.05 
1 134.694 
1 171.086 
1 146.731 
1 166.59 
1 150.03 
1 132.789 
1 100.714 
1 125.723 
1 131.986 
1 98.4135 
1 138.92 
1 126.13 
1 132.502 
1 157.939 
1 143.964 
1 174.137 
1 126.062 
1 124.559 
1 159.094 
1 124.071 
1 142.168 
1 137.31 
1 144.27 
1 116.161 
1 125.753 
1 126.743 
1 162.576 
1 140.755 
ITEM: TIMESTEP
54000
ITEM: NUMBER OF ENTRIES
100
ITEM: BOX BOUNDS pp pp pp
0 32.5475
0 32.5475
0 32.5475
ITEM: ENTRIES c_ATYPE[*] c_ANGLE[*] 
1 142.914 
1 111.885 
1 156.688 
1 127.893 
1 142.743 
1 128.871 
1 174.513 
1 147.778 
1 117.758 
1 170.317 
1 150.576 
1 132.314 
1 151.269 
1 150.59 
1 139.642 
1 124.796 
1 141.758 
1 173.038 
1 127.316 
1 132.576 
1 123.715 
1 132.401 
1 142.46 
1 147.236 
1 97.9619 
1 154.9 
1 129.949 
1 121.694 
1 127.459 
1 148.149 
1 147.767 
1 156.098 
1 168.14 
1 131.099 
1 168.701 
1 142.744 
1 146.834 
1 126.563 
1 112.624 
1 156.606 
1 169.735 
1 159.228 
1 162.339 
1 103.796 
1 137.223 
1 139.136 
1 176.699 
1 150.966 
1 162.079 
1 124.976 
1 118.341 
1 148.978 
1 140.932 
1 122.869 
1 134.763 
1 126.119 
1 142.52 
1 133.784 
1 151.54 
1 125.571 
1 169.466 
1 116.127 
1 151.366 
1 160.546 
1 164.92 
1 132.499 
1 107.792 
1 154.017 
1 126.27 
1 160.339 
1 158.739 
1 147.114 
1 160.406 
1 175.614 
1 123.855 
1 118.736 
1 162.849 
1 139.352 
1 160.109 
1 171.681 
1 149.236 
1 146.394 
1 155.208 
1 152.982 
1 165.222 
1 172.969 
1 115.266 
1 137.852 
1 165.8 
1 148.933 
1 167.259 
1 144.983 
1 147.311 
1 145.617 
1 135.131 
1 134.965 
1 136.247 
1 164.773 
1 153.785 
1 127.591 
ITEM: TIMESTEP
54500
ITEM: NUMBER OF ENTRIES
100
ITEM: BOX BOUNDS pp pp pp
0 32.5475
0 32.5475
0 32.5475
ITEM: ENTRIES c_ATYPE[*] c_ANGLE[*] 
1 139.03 
1 169.14 
1 159.33 
1 134.268 
1 171.017 
1 168.412 
1 135.743 
1 149.649 
1 128.871 
1 175.57 
1 162.289 
1 140.125 
1 131.382 
1 160.712 
1 139.361 
1 145.651 
1 138.704 
1 117.114 
1 119.669 
1 125.983 
1 153.9 
1 131.718 
1 148.97 
1 137.595 
1 136.838 
1 154.317 
1 157.156 
1 156.068 
1 134.72 
1 161.384 
1 124.638 
1 150.756 
1 166.435 
1 131.125 
1 115.293 
1 128.724 
1 122.874 
1 145.048 
1 132.309 
1 152.654 
1 148.011 
1 131.541 
1 143.984 
1 133.733 
1 138.642 
1 155.704 
1 162.982 
1 142.018 
1 171.788 
1 120.917 
1 158.623 
1 139.966 
1 144.064 
1 135.295 
1 158.3 
1 176.189 
1 164.235 
1 147.21 
1 146.75 
1 132.29 
1 139.046 
1 124.343 
1 159.454 
1 124.196 
1 139.904 
1 145.828 
1 148.148 
1 151.538 
1 161.601 
1 127.405 
1 172.522 
1 122.941 
1 149.962 
1 121.219 
1 160.102 
1 133.788 
1 132.597 
1 162.419 
1 144.447 
1 158.596 
1 138.875 
1 162.689 
1 124.003 
1 130.744 
1 135.058 
1 141.463 
1 161.2 
1 134.421 
1 142.285 
1 163.371 
1 140.067 
1 165.261 
1 172.559 
1 143.456 
1 132.717 
1 146.347 
1 138.196 
1 159.504 
1 138.985 
1 159.117 
ITEM: TIMESTEP
55000
ITEM: NUMBER OF ENTRIES
100
ITEM: BOX BOUNDS pp pp pp
0 32.5475
0 32.5475
0 32.5475
ITEM: ENTRIES c_ATYPE[*] c_ANGLE[*] 
1 122.63 
1 140.612 
1 113.895 
1 147.352 
1 142.827 
1 124.836 
1 135.648 
1 154.479 
1 130.634 
1 164.786 
1 166.767 
1 170.166 
1 131.576 
1 164.375 
1 142.676 
1 135.314 
1 156.238 
1 151.413 
1 144.248 
1 142.007 
1 153.007 
1 160.476 
1 164.536 
1 160.887 
1 136.88 
1 152.715 
1 144.796 
1 121.664 
1 175.397 
1 125.535 
1 134.466 
1 93.7258 
1 115.432 
1 137.826 
1 122.582 
1 156.992 
1 167.123 
1 117.738 
1 128.402 
1 130.935 
1 140.599 
1 147.715 
1 129.619 
1 153.689 
1 143.772 
1 150.226 
1 139.005 
1 120.637 
1 156.764 
1 165.054 
1 137.426 
1 158.985 
1 147.409 
1 117.605 
1 97.1286 
1 128.029 
1 144.992 
1 109.982 
1 132.557 
1 167.495 
1 141.055 
1 146.524 
1 115.104 
1 137.885 
1 153.879 
1 128.725 
1 133.229 
1 158.625 
1 139.441 
1 142.914 
1 170.071 
1 142.221 
1 132.645 
1 133.817 
1 143.08 
1 174.28 
1 147.46 
1 139.92 
1 91.9527 
1 159.297 
1 113.177 
1 123.369 
1 132.478 
1 175.788 
1 121.771 
1 167.329 
1 160.252 
1 172.592 
1 176.142 
1 156.338 
1 125.54 
1 163.118 
1 173.815 
1 141.855 
1 161.482 
1 155.166 
1 157.307 
1 145.467 
1 137.885 
1 137.834 
ITEM: TIMESTEP
55500
ITEM: NUMBER OF ENTRIES
100
ITEM: BOX BOUNDS pp pp pp
0 32.5475
0 32.5475
0 32.5475
ITEM: ENTRIES c_ATYPE[*] c_ANGLE[*] 
1 142.43 
1 160.896 
1 123.774 
1 117.862 
1 148.298 
1 148.247 
1 150.098 
1 140.259 
1 141.863 
1 168.96 
1 149.966 
1 157.951 
1 156.344 
1 121.748 
1 135.527 
1 164.819 
1 123.274 
1 120.399 
1 166.472 
1 118.347 
1 159.913 
1 124.972 
1 145.053 
1 124.607 
1 128.144 
1 120.6 
1 150.43 
1 150.748 
1 160.129 
1 126.977 
1 138.592 
1 165.502 
1 108.182 
1 141.723 
1 150.619 
1 134.184 
1 165.712 
1 111.61 
1 139.658 
1 156.458 
1 117.278 
1 112.953 
1 130.508 
1 159.989 
1 128.494 
1 160.319 
1 135.545 
1 127.27 
1 151.99 
1 123.565 
1 128.071 
1 127.917 
1 131.401 
1 128.403 
1 152.742 
1 148.967 
1 166.323 
1 156.873 
1 150.552 
1 121.098 
1 135.33 
1 155.677 
1 155.531 
1 116.851 
1 132.115 
1 133.124 
1 130.543 
1 153.577 
1 139.726 
1 106.928 
1 124.997 
1 128.501 
1 136.51 
1 116.38 
1 145.537 
1 143.714 
1 134.884 
1 144.148 
1 132.507 
1 154.738 
1 133.698 
1 120.368 
1 151.699 
1 162.665 
1 171.175 
1 100.526 
1 153.839 
1 135.673 
1 114.704 
1 142.683 
1 147.966 
1 131.178 
1 148.216 
1 123.666 
1 122.443 
1 134.336 
1 131.398 
1 125.149 
1 146.614 
1 147.288 
ITEM: TIMESTEP
56000
ITEM: NUMBER OF ENTRIES
100
ITEM: BOX BOUNDS pp pp pp
0 32.5475
0 32.5475
0 32.5475
ITEM: ENTRIES c_ATYPE[*] c_ANGLE[*] 
1 118.432 
1 130.505 
1 126.377 
1 158.521 
1 120.974 
1 117.953 
1 159.161 
1 126.415 
1 128.772 
1 156.883 
1 144.6 
1 139.883 
1 174.648 
1 163.054 
1 159.627 
1 134.635 
1 142.416 
1 153.319 
1 139.975 
1 158.406 
1 124.464 
1 134.14 
1 140.068 
1 118.78 
1 160.567 
1 151.759 
1 154.353 
1 149.357 
1 154.351 
1 127.684 
1 118.203 
1 129.041 
1 120.653 
1 155.611 
1 150.679 
1 129.241 
1 149.672 
1 135.3 
1 124.868 
1 136.784 
1 159.517 
1 136.795 
1 106.461 
1 144.617 
1 159.14 
1 134.114 
1 124.01 
1 138.043 
1 141.493 
1 150.246 
1 114.594 
1 144.296 
1 146.188 
1 122.397 
1 152.748 
1 132.905 
1 107.734 
1 128.963 
1 138.851 
1 140.386 
1 138.494 
1 138.589 
1 146.279 
1 143.311 
1 132.491 
1 147.493 
1 147.997 
1 152.779 
1 162.045 
1 126.91 
1 132.624 
1 147.732 
1 130.087 
1 141.618 
1 156.765 
1 116.842 
1 170.597 
1 137.99 
1 147.163 
1 128.739 
1 158.027 
1 151.69 
1 133.631 
1 156.649 
1 141.005 
1 146.269 
1 154.104 
1 149.009 
1 103.588 
1 141.378 
1 113.081 
1 144.859 
1 163.434 
1 160.327 
1 78.2916 
1 122.029 
1 113.986 
1 147.171 
1 141.073 
1 146.501 
ITEM: TIMESTEP
56500
ITEM: NUMBER OF ENTRIES
100
ITEM: BOX BOUNDS pp pp pp
0 32.5475
0 32.5475
0 32.5475
ITEM: ENTRIES c_ATYPE[*] c_ANGLE[*] 
1 141.604 
1 156.066 
1 118.785 
1 112.224 
1 166.334 
1 119.29 
1 163.013 
1 116.22 
1 154.339 
1 114.577 
1 135.552 
1 139.929 
1 158.963 
1 164.573 
1 134.813 
1 124.868 
1 167.784 
1 107.458 
1 150.833 
1 119.948 
1 142.174 
1 171.097 
1 160.453 
1 150.225 
1 133.269 
1 151.768 
1 159.47 
1 127.777 
1 120.417 
1 106.778 
1 159.689 
1 138.259 
1 121.862 
1 118.01 
1 140.902 
1 135.087 
1 170.029 
1 131.244 
1 156.461 
1 90.5489 
1 129.705 
1 136.644 
1 134.803 
1 175.481 
1 153.196 
1 126.442 
1 155.291 
1 152.744 
1 143.675 
1 159.86 
1 128.21 
1 139.619 
1 144.344 
1 164.735 
1 128.304 
1 153.662 
1 166.793 
1 150.758 
1 124.221 
1 148.492 
1 106.779 
1 134.638 
1 149.835 
1 156.488 
1 123.558 
1 158.05 
1 130.754 
1 120.89 
1 165.62 
1 124.666 
1 139.611 
1 109.113 
1 144.932 
1 128.712 
1 104.684 
1 149.498 
1 157.448 
1 103.149 
1 124.443 
1 127.068 
1 159.22 
1 131.943 
1 148.462 
1 121.333 
1 168.012 
1 125.291 
1 134.071 
1 132.612 
1 161.735 
1 133.053 
1 129.809 
1 156.759 
1 124.861 
1 131.789 
1 139.32 
1 166.019 
1 128.131 
1 161.595 
1 137.029 
1 126.104 
ITEM: TIMESTEP
57000
ITEM: NUMBER OF ENTRIES
100
ITEM: BOX BOUNDS pp pp pp
0 32.5475
0 32.5475
0 32.5475
ITEM: ENTRIES c_ATYPE[*] c_ANGLE[*] 
1 134.68 
1 117.87 
1 146.304 
1 138.61 
1 122.536 
1 125.643 
1 114.979 
1 134.325 
1 129.62 
1 124.963 
1 141.495 
1 166.897 
1 171.996 
1 122.388 
1 147.784 
1 140.285 
1 151.883 
1 124.961 
1 167.957 
1 124.176 
1 145.55 
1 155.917 
1 161.702 
1 130.961 
1 129.975 
1 126.843 
1 167.961 
1 158.037 
1 123.298 
1 128.967 
1 133.135 
1 143.889 
1 142.756 
1 127.393 
1 125.839 
1 154.432 
1 147.758 
1 156.433 
1 115.89 
1 153.847 
1 162.917 
1 140.598 
1 146.46 
1 154.969 
1 118.74 
1 143.262 
1 147.216 
1 121.956 
1 134.654 
1 156.28 
1 144.792 
1 151.001 
1 129.547 
1 139.191 
1 143.599 
1 167.544 
1 131.554 
1 176.506 
1 146.552 
1 126.371 
1 106.33 
1 155.724 
1 140.17 
1 140.86 
1 130.68 
1 111.285 
1 136.913 
1 101.358 
1 114.49 
1 155.185 
1 137.544 
1 143.934 
1 134.933 
1 170.956 
1 166.196 
1 155.916 
1 136.021 
1 121.795 
1 167.966 
1 143.949 
1 155.082 
1 167.598 
1 135.555 
1 132.011 
1 162.942 
1 128.051 
1 172.587 
1 151.969 
1 123.921 
1 122.352 
1 152.707 
1 171.915 
1 127.553 
1 157.123 
1 149.498 
1 159.604 
1 125.578 
1 118.643 
1 120.08 
1 107.383 
ITEM: TIMESTEP
57500
ITEM: NUMBER OF ENTRIES
100
ITEM: BOX BOUNDS pp pp pp
0 32.5475
0 32.5475
0 32.5475
ITEM: ENTRIES c_ATYPE[*] c_ANGLE[*] 
1 121.808 
1 149.044 
1 152.635 
1 116.16 
1 131.147 
1 136.021 
1 130.576 
1 150.356 
1 135.19 
1 164.661 
1 133.143 
1 163.28 
1 151.797 
1 171.612 
1 167.367 
1 136.186 
1 126.333 
1 158.672 
1 138.777 
1 142.379 
1 150.595 
1 155.547 
1 154.472 
1 127.736 
1 134.991 
1 117.023 
1 125.626 
1 119.656 
1 171.301 
1 175.542 
1 131.357 
1 105.207 
1 132.4 
1 169.1 
1 148.679 
1 139.481 
1 133.469 
1 164.898 
1 115.079 
1 135.836 
1 143.134 
1 135.59 
1 146.096 
1 109.205 
1 130.105 
1 176.29 
1 132.171 
1 163.289 
1 118.105 
1 173.19 
1 107.774 
1 136.813 
1 130.144 
1 139.6 
1 172.691 
1 150.528 
1 131.952 
1 140.715 
1 141.256 
1 153.682 
1 155.47 
1 172.617 
1 112.099 
1 114.968 
1 121.506 
1 131.959 
1 126.126 
1 131.8 
1 152.846 
1 91.1282 
1 143.409 
1 161.709 
1 162.199 
1 99.5797 
1 164.282 
1 140.622 
1 139.98 
1 139.603 
1 119.119 
1 175.552 
1 141.167 
1 137.8 
1 128.044 
1 124.918 
1 124.492 
1 117.322 
1 124.325 
1 153.179 
1 168.492 
1 144.002 
1 161.234 
1 146.243 
1 156.739 
1 148.613 
1 97.9932 
1 132.791 
1 134.154 
1 130.627 
1 114.136 
1 146.866 
ITEM: TIMESTEP
58000
ITEM: NUMBER OF ENTRIES
100
ITEM: BOX BOUNDS pp pp pp
0 32.5475
0 32.5475
0 32.5475
ITEM: ENTRIES c_ATYPE[*] c_ANGLE[*] 
1 158.007 
1 132.206 
1 133.292 
1 154.642 
1 135.361 
1 152.027 
1 107.558 
1 132.464 
1 128.256 
1 154.194 
1 124.914 
1 137.589 
1 138.605 
1 114.565 
1 124.356 
1 139.01 
1 161.895 
1 176.53 
1 165.701 
1 145.842 
1 123.475 
1 145.58 
1 135.142 
1 134.628 
1 158.687 
1 132.695 
1 150.181 
1 130.216 
1 121.821 
1 165.715 
1 174.987 
1 170.907 
1 130.593 
1 138.108 
1 136.402 
1 136.14 
1 137.432 
1 136.507 
1 152.263 
1 131.872 
1 124.334 
1 127.766 
1 162.277 
1 151.061 
1 123.405 
1 120.015 
1 119.843 
1 131.799 
1 120.537 
1 137.037 
1 160.587 
1 137.384 
1 111.974 
1 171.036 
1 164.739 
1 172.11 
1 142.244 
1 127.713 
1 168.925 
1 133.651 
1 147.035 
1 135.728 
1 155.636 
1 132.346 
1 136.063 
1 146.031 
1 157.789 
1 151.995 
1 127.062 
1 154.625 
1 153.96 
1 145.954 
1 163.348 
1 153.235 
1 113.593 
1 114.181 
1 156.668 
1 133.126 
1 118.082 
1 144.953 
1 153.479 
1 139.172 
1 126.296 
1 157.715 
1 153.185 
1 129.143 
1 128.398 
1 153.599 
1 124.573 
1 140.213 
1 134.472 
1 163.898 
1 158.922 
1 155.913 
1 149.266 
1 109.824 
1 170.373 
1 147.511 
1 161.309 
1 137.225 
ITEM: TIMESTEP
58500
ITEM: NUMBER OF ENTRIES
100
ITEM: BOX BOUNDS pp pp pp
0 32.5475
0 32.5475
0 32.5475
ITEM: ENTRIES c_ATYPE[*] c_ANGLE[*] 
1 142.929 
1 147.734 
1 118.887 
1 143.248 
1 140.703 
1 145.381 
1 148.172 
1 151.989 
1 173.206 
1 143.064 
1 151.191 
1 126.19 
1 151.87 
1 131.655 
1 140.451 
1 165.758 
1 140.171 
1 152.436 
1 73.0708 
1 161.666 
1 136.326 
1 160.998 
1 131.914 
1 165.853 
1 142.384 
1 142.472 
1 158.418 
1 128.443 
1 112.688 
1 157.992 
1 149.852 
1 156.358 
1 148.943 
1 134.29 
1 136.343 
1 156.532 
1 124.711 
1 118.132 
1 137.566 
1 162.377 
1 150.717 
1 138.638 
1 155.316 
1 127.453 
1 115.667 
1 123.438 
1 147.673 
1 164.331 
1 152.922 
1 160.605 
1 169.844 
1 156.942 
1 110.041 
1 150.668 
1 148.746 
1 152.622 
1 129.793 
1 172.452 
1 149.416 
1 116.494 
1 173.116 
1 164.56 
1 138.403 
1 126.006 
1 140.168 
1 145.994 
1 123.257 
1 153.238 
1 151.421 
1 109.47 
1 115.807 
1 151.396 
1 120.827 
1 119.8 
1 118.107 
1 137.905 
1 141.282 
1 153.96 
1 155.633 
1 124.879 
1 173.658 
1 166.863 
1 99.0173 
1 145.783 
1 114.131 
1 173.927 
1 156.747 
1 161.857 
1 131.515 
1 159.582 
1 147.425 
1 146.936 
1 139.538 
1 137.643 
1 134.444 
1 164.525 
1 158.835 
1 113.497 
1 150.436 
1 118.772 
ITEM: TIMESTEP
59000
ITEM: NUMBER OF ENTRIES
100
ITEM: BOX BOUNDS pp pp pp
0 32.5475
0 32.5475
0 32.5475
ITEM: ENTRIES c_ATYPE[*] c_ANGLE[*] 
1 138.715 
1 136.472 
1 132.454 
1 150.696 
1 159.731 
1 149.717 
1 135.875 
1 143.03 
1 143.017 
1 171.835 
1 141.131 
1 142.654 
1 160.177 
1 135.418 
1 163.429 
1 158.482 
1 137.339 
1 123.527 
1 153.017 
1 116.463 
1 148.357 
1 154.942 
1 150.663 
1 151.041 
1 140.684 
1 122.523 
1 129.784 
1 104.667 
1 131.639 
1 154.756 
1 121.457 
1 122.213 
1 93.5933 
1 170.327 
1 163.312 
1 130.874 
1 169.744 
1 123.026 
1 119.144 
1 123.404 
1 167.568 
1 157.968 
1 110.636 
1 122.469 
1 114.699 
1 149.607 
1 147.933 
1 133.381 
1 144.034 
1 114.543 
1 135.655 
1 133.176 
1 122.262 
1 120.063 
1 138.848 
1 155.816 
1 148.241 
1 177.379 
1 104.787 
1 157.526 
1 162.542 
1 119.56 
1 127.025 
1 139.109 
1 131.965 
1 141.937 
1 145.779 
1 141.2 
1 165.237 
1 165.176 
1 130.609 
1 124.933 
1 137.564 
1 154.802 
1 162.652 
1 161.753 
1 137.379 
1 130.241 
1 174.602 
1 150.784 
1 169.944 
1 117.734 
1 156.231 
1 139.447 
1 125.05 
1 135.739 
1 127.587 
1 152.294 
1 142.511 
1 144.203 
1 119.561 
1 140.348 
1 140.177 
1 155.119 
1 144.464 
1 153.997 
1 138.768 
1 154.837 
1 163.468 
1 134.965 
ITEM: TIMESTEP
59500
ITEM: NUMBER OF ENTRIES
100
ITEM: BOX BOUNDS pp pp pp
0 32.5475
0 32.5475
0 32.5475
ITEM: ENTRIES c_ATYPE[*] c_ANGLE[*] 
1 163.958 
1 145.323 
1 141.83 
1 141.244 
1 151.697 
1 114.203 
1 123.486 
1 158 
1 134.798 
1 128.008 
1 111.816 
1 169.651 
1 122.508 
1 164.414 
1 118.523 
1 144.373 
1 130.187 
1 138.374 
1 150.046 
1 132.617 
1 146.789 
1 157.977 
1 154.324 
1 144.119 
1 152.139 
1 128.72 
1 122.601 
1 146.88 
1 136.858 
1 118.539 
1 114.284 
1 140.083 
1 136.651 
1 131.152 
1 136.283 
1 135.315 
1 155.509 
1 148.965 
1 164.116 
1 158.238 
1 154.711 
1 139.019 
1 144.128 
1 166.986 
1 138.432 
1 136.816 
1 136.923 
1 136.352 
1 128.418 
1 170.961 
1 137.133 
1 116.179 
1 161.444 
1 153.469 
1 132.389 
1 143.559 
1 142.254 
1 165.908 
1 112.437 
1 132.721 
1 126.087 
1 168.072 
1 145.65 
1 160.378 
1 124.416 
1 123.911 
1 149.344 
1 133.029 
1 127.238 
1 157.1 
1 108.471 
1 134.862 
1 158.899 
1 141.197 
1 148.895 
1 156.009 
1 169.689 
1 130.779 
1 129.185 
1 151.464 
1 130.264 
1 147.363 
1 145.628 
1 136.738 
1 143.982 
1 170.261 
1 155.284 
1 162.846 
1 156.102 
1 131.318 
1 123.642 
1 171.659 
1 136.58 
1 145.027 
1 153.321 
1 141.785 
1 136.675 
1 151.937 
1 146.325 
1 158.656 
ITEM: TIMESTEP
60000
ITEM: NUMBER OF ENTRIES
100
ITEM: BOX BOUNDS pp pp pp
0 32.5475
0 32.5475
0 32.5475
ITEM: ENTRIES c_ATYPE[*] c_ANGLE[*] 
1 163.936 
1 126.505 
1 109.616 
1 164.365 
1 135.489 
1 156.035 
1 123.803 
1 145.068 
1 170.677 
1 129.747 
1 164.247 
1 159.303 
1 167.327 
1 162.551 
1 141.202 
1 127.703 
1 124.833 
1 145.4 
1 162.575 
1 142.466 
1 138.178 
1 164.541 
1 126.944 
1 127.047 
1 154.81 
1 156.498 
1 151.031 
1 139.041 
1 130.741 
1 112.059 
1 154.53 
1 156.968 
1 113.712 
1 136.431 
1 157.464 
1 165.384 
1 131.121 
1 160.79 
1 141.637 
1 123.311 
1 145.273 
1 137.669 
1 130.121 
1 150.497 
1 101.827 
1 158.657 
1 123.168 
1 147.107 
1 135.424 
1 155.675 
1 121.413 
1 154.194 
1 157.61 
1 144.986 
1 136.295 
1 145.438 
1 160.872 
1 171.854 
1 142.769 
1 134.691 
1 147.662 
1 125.465 
1 166.678 
1 152.515 
1 135.091 
1 147.915 
1 136.733 
1 145.811 
1 160.751 
1 161.321 
1 121.054 
1 137.493 
1 158.761 
1 158.327 
1 141.39 
1 147.605 
1 157.694 
1 145.699 
1 135.69 
1 149.911 
1 121.633 
1 124.272 
1 157.392 
1 109.724 
1 136.262 
1 138.974 
1 172.384 
1 150.106 
1 138.269 
1 101.446 
1 148.454 
1 150.854 
1 144.989 
1 148.636 
1 169.846 
1 118.346 
1 161.574 
1 152.358 
1 162.149 
1 160.613 
ITEM: TIMESTEP
60500
ITEM: NUMBER OF ENTRIES
100
ITEM: BOX BOUNDS pp pp pp
0 32.5475
0 32.5475
0 32.5475
ITEM: ENTRIES c_ATYPE[*] c_ANGLE[*] 
1 135.698 
1 153.363 
1 132.432 
1 123.013 
1 128.212 
1 143.322 
1 137.791 
1 133.092 
1 164.334 
1 163.838 
1 144.953 
1 142.332 
1 135.782 
1 124.465 
1 126.632 
1 156.236 
1 147.398 
1 99.5336 
1 150.656 
1 131.789 
1 132.927 
1 154.218 
1 112.846 
1 142.533 
1 172.927 
1 160.374 
1 137.538 
1 110.975 
1 140.352 
1 131.804 
1 113.495 
1 147.25 
1 153.742 
1 147.125 
1 125.772 
1 146.042 
1 98.1264 
1 167.544 
1 166.93 
1 143.42 
1 117.262 
1 116.46 
1 156.788 
1 112.667 
1 150.159 
1 176.881 
1 135.313 
1 141.76 
1 142.303 
1 136.33 
1 125.064 
1 163.682 
1 149.846 
1 152.348 
1 149.083 
1 161.785 
1 132.455 
1 154.648 
1 141.822 
1 113.915 
1 144.948 
1 149.3 
1 123.861 
1 152.35 
1 127.56 
1 151.872 
1 176.304 
1 120.222 
1 148.4 
1 157.707 
1 148.158 
1 149.762 
1 167.555 
1 134.928 
1 141.202 
1 127.857 
1 149.991 
1 128.926 
1 110.42 
1 150.915 
1 125.641 
1 123.921 
1 166.156 
1 136.803 
1 139.357 
1 145.739 
1 125.398 
1 130.157 
1 143.268 
1 146.874 
1 153.83 
1 165.504 
1 172.173 
1 173.141 
1 151.803 
1 128.662 
1 158.035 
1 155.805 
1 131.963 
1 143.32 
ITEM: TIMESTEP
61000
ITEM: NUMBER OF ENTRIES
100
ITEM: BOX BOUNDS pp pp pp
0 32.5475
0 32.5475
0 32.5475
ITEM: ENTRIES c_ATYPE[*] c_ANGLE[*] 
1 160.271 
1 130.268 
1 150.948 
1 146.117 
1 125.643 
1 120.51 
1 134.683 
1 152.675 
1 136.681 
1 156.583 
1 134.406 
1 143.414 
1 126.624 
1 130.556 
1 141.025 
1 118.31 
1 130.696 
1 109.131 
1 138.38 
1 147.591 
1 156.343 
1 123.054 
1 147.051 
1 111.578 
1 162.09 
1 129.659 
1 171.801 
1 169.357 
1 156.226 
1 138.871 
1 137.089 
1 140.858 
1 140.277 
1 150.358 
1 128.539 
1 153.075 
1 157.377 
1 173.066 
1 167.133 
1 150.889 
1 143.288 
1 115.026 
1 167.619 
1 139.001 
1 129.587 
1 106.145 
1 132.744 
1 114.537 
1 126.969 
1 134.952 
1 132.318 
1 153.778 
1 163.423 
1 157.95 
1 132.494 
1 162.522 
1 165.426 
1 138.019 
1 153.817 
1 137.803 
1 134.252 
1 109.824 
1 121.732 
1 160.331 
1 85.7731 
1 135.616 
1 130.13 
1 161.079 
1 146.19 
1 157.776 
1 137.896 
1 154.696 
1 138.828 
1 163.958 
1 147.176 
1 174.238 
1 120.881 
1 140.357 
1 167.072 
1 128.096 
1 141.876 
1 168.51 
1 176.113 
1 139.745 
1 127.452 
1 151.149 
1 166.809 
1 122.489 
1 167.435 
1 163.293 
1 118.69 
1 120.041 
1 150.507 
1 109.747 
1 142.808 
1 153.914 
1 142.934 
1 153.395 
1 154.413 
1 128.1 
ITEM: TIMESTEP
61500
ITEM: NUMBER OF ENTRIES
100
ITEM: BOX BOUNDS pp pp pp
0 32.5475
0 32.5475
0 32.5475
ITEM: ENTRIES c_ATYPE[*] c_ANGLE[*] 
1 132.918 
1 152.942 
1 145.426 
1 158.979 
1 128.201 
1 157.999 
1 146.366 
1 138.436 
1 156.505 
1 154.841 
1 156.046 
1 171.598 
1 158.896 
1 138.693 
1 148.129 
1 136.188 
1 142.878 
1 159.431 
1 160.639 
1 157.472 
1 150.105 
1 109.133 
1 156.075 
1 146.009 
1 137.922 
1 136.078 
1 164.603 
1 144.47 
1 128.026 
1 126.377 
1 145.427 
1 127.703 
1 158.446 
1 149.29 
1 138.078 
1 149.992 
1 141.243 
1 144.938 
1 156.537 
1 166.6 
1 138.292 
1 157.755 
1 145.698 
1 121.187 
1 152.872 
1 103.05 
1 168.436 
1 145.089 
1 132.428 
1 170.225 
1 146.258 
1 126.765 
1 128.406 
1 127.075 
1 157.577 
1 158.295 
1 153.417 
1 136.163 
1 148.471 
1 171.715 
1 155.277 
1 133.056 
1 133.626 
1 141.519 
1 119.122 
1 138.359 
1 122.228 
1 122.222 
1 173.506 
1 132.789 
1 131.183 
1 127.066 
1 126.847 
1 119.607 
1 156.869 
1 149.48 
1 127.237 
1 128.434 
1 112.397 
1 123.957 
1 163.014 
1 144.908 
1 161.629 
1 140.774 
1 152.186 
1 142.307 
1 124.583 
1 140.137 
1 167.908 
1 164.281 
1 137.813 
1 153.14 
1 127.243 
1 163.22 
1 125.33 
1 138.65 
1 166.495 
1 125.809 
1 167.742 
1 153.83 
ITEM: TIMESTEP
62000
ITEM: NUMBER OF ENTRIES
100
ITEM: BOX BOUNDS pp pp pp
0 32.5475
0 32.5475
0 32.5475
ITEM: ENTRIES c_ATYPE[*] c_ANGLE[*] 
1 158.385 
1 134.465 
1 163.731 
1 138.075 
1 131.522 
1 137.713 
1 162.969 
1 130.403 
1 140.97 
1 162.341 
1 144.391 
1 137.491 
1 106.422 
1 132.727 
1 108.645 
1 167.512 
1 148.718 
1 117.185 
1 152.229 
1 154.868 
1 138.555 
1 159.43 
1 141.139 
1 154.913 
1 144.366 
1 149.7 
1 131.794 
1 133.401 
1 145.751 
1 147.063 
1 161.164 
1 147.697 
1 113.921 
1 128.886 
1 142.828 
1 167.448 
1 124.073 
1 151.868 
1 109.225 
1 166.356 
1 139.265 
1 140.418 
1 141.253 
1 141.419 
1 129.516 
1 147.477 
1 145.192 
1 126.652 
1 122.751 
1 141.774 
1 154.452 
1 134.947 
1 136.799 
1 117.521 
1 138.734 
1 142.222 
1 144.069 
1 136.718 
1 116.395 
1 131.321 
1 153.422 
1 107.225 
1 173.242 
1 156.182 
1 134.301 
1 138.393 
1 154.81 
1 137.72 
1 152.586 
1 146.547 
1 131.452 
1 129.098 
1 118.848 
1 152.921 
1 137.306 
1 156.99 
1 137.866 
1 121.389 
1 145.866 
1 156.302 
1 103.475 
1 137.591 
1 126.702 
1 133.333 
1 150.172 
1 126.22 
1 136.245 
1 133.529 
1 108.469 
1 145.34 
1 113.9 
1 132.123 
1 156.154 
1 134.251 
1 143.141 
1 125.308 
1 128.691 
1 176.084 
1 131.948 
1 144.65 
ITEM: TIMESTEP
62500
ITEM: NUMBER OF ENTRIES
100
ITEM: BOX BOUNDS pp pp pp
0 32.5475
0 32.5475
0 32.5475
ITEM: ENTRIES c_ATYPE[*] c_ANGLE[*] 
1 131.979 
1 144.625 
1 159.715 
1 126.633 
1 147.598 
1 142.067 
1 148.939 
1 144.175 
1 173.912 
1 149.56 
1 168.765 
1 117.785 
1 127.717 
1 138.864 
1 148.506 
1 152.248 
1 143.866 
1 165.529 
1 145.471 
1 165.188 
1 148.605 
1 132.832 
1 173.962 
1 106.839 
1 128.791 
1 167.279 
1 140.27 
1 154.868 