ITEM: TIMESTEP
50500
ITEM: NUMBER OF ENTRIES
100
ITEM: BOX BOUNDS pp pp pp
0.0000000000000000e+00 3.2554049816410100e+01
0.0000000000000000e+00 3.2554049816410100e+01
0.0000000000000000e+00 3.2554049816410100e+01
ITEM: ENTRIES c_ATYPE[*] c_ANGLE[*] 
1 144.132 
1 156.173 
1 160.17 
1 115.48 
1 133.742 
1 129.403 
1 131.169 
1 148.541 
1 143.336 
1 126.763 
1 140.923 
1 132.153 
1 172.893 
1 154.049 
1 167.831 
1 142.145 
1 140.561 
1 115.143 
1 133.634 
1 140.553 
1 136.962 
1 137.108 
1 159.58 
1 125.089 
1 128.591 
1 134.187 
1 163.75 
1 131.721 
1 100.673 
1 176.159 
1 132.187 
1 170.904 
1 103.09 
1 149.714 
1 157.054 
1 139.875 
1 146.652 
1 131.009 
1 173.436 
1 145.669 
1 148.535 
1 164.238 
1 171.235 
1 153.618 
1 122.013 
1 159.832 
1 144.212 
1 134.956 
1 124.4 
1 133.068 
1 145.061 
1 163.553 
1 131.368 
1 137.811 
1 125.054 
1 128.586 
1 146.707 
1 150.35 
1 126.43 
1 119.959 
1 128.152 
1 159.65 
1 141.606 
1 165.065 
1 150.586 
1 128.211 
1 142.109 
1 104.213 
1 146.709 
1 160.022 
1 127.427 
1 154.175 
1 152.38 
1 97.022 
1 116.704 
1 134.09 
1 114.895 
1 155.022 
1 147.102 
1 166.369 
1 137.709 
1 161.603 
1 121.695 
1 116.288 
1 161.299 
1 152.09 
1 123.286 
1 146.276 
1 122.786 
1 144.287 
1 122.204 
1 135.113 
1 163.49 
1 164.364 
1 137.722 
1 131.012 
1 129.186 
1 140.317 
1 111.173 
1 168.46 
ITEM: TIMESTEP
51000
ITEM: NUMBER OF ENTRIES
100
ITEM: BOX BOUNDS pp pp pp
0.0000000000000000e+00 3.2554049816410100e+01
0.0000000000000000e+00 3.2554049816410100e+01
0.0000000000000000e+00 3.2554049816410100e+01
ITEM: ENTRIES c_ATYPE[*] c_ANGLE[*] 
1 130.547 
1 136.545 
1 158.264 
1 137.482 
1 166.066 
1 160.855 
1 124.658 
1 137.106 
1 132.856 
1 170.423 
1 151.906 
1 112.353 
1 109.995 
1 157.328 
1 145.426 
1 161.116 
1 149.285 
1 157.26 
1 161.837 
1 153.761 
1 165.52 
1 152.494 
1 152.661 
1 120.088 
1 133.724 
1 170.333 
1 138.477 
1 170.305 
1 166.101 
1 127.041 
1 154.354 
1 138.019 
1 133.864 
1 155.703 
1 156.199 
1 130.612 
1 174.811 
1 103.31 
1 163.825 
1 138.968 
1 161.633 
1 131.618 
1 170.48 
1 151.737 
1 118.67 
1 126.442 
1 126.757 
1 141.564 
1 154.361 
1 119.408 
1 138.183 
1 133.094 
1 169.488 
1 111.867 
1 131.778 
1 151.31 
1 151.366 
1 147.321 
1 148.692 
1 120.967 
1 138.996 
1 157.076 
1 150.606 
1 137.072 
1 137.205 
1 133.292 
1 132.344 
1 138.208 
1 126.048 
1 149.494 
1 122.977 
1 156.183 
1 135.962 
1 175.598 
1 164.9 
1 150.185 
1 158.659 
1 153.347 
1 152.969 
1 130.291 
1 159.219 
1 160.662 
1 152.096 
1 119.447 
1 159.757 
1 136.972 
1 135.052 
1 142.109 
1 132.189 
1 132.846 
1 134.673 
1 149.45 
1 169.752 
1 127.817 
1 114.917 
1 132.931 
1 144 
1 131.329 
1 146.81 
1 137.9 
ITEM: TIMESTEP
51500
ITEM: NUMBER OF ENTRIES
100
ITEM: BOX BOUNDS pp pp pp
0.0000000000000000e+00 3.2554049816410100e+01
0.0000000000000000e+00 3.2554049816410100e+01
0.0000000000000000e+00 3.2554049816410100e+01
ITEM: ENTRIES c_ATYPE[*] c_ANGLE[*] 
1 136.024 
1 149.909 
1 159.707 
1 145.197 
1 122.477 
1 121.125 
1 161.358 
1 123.581 
1 125.182 
1 127.951 
1 142.987 
1 115.124 
1 112.494 
1 150.991 
1 131.178 
1 130.396 
1 137.097 
1 123.117 
1 141.478 
1 154.182 
1 159.956 
1 126.942 
1 175.272 
1 130.044 
1 151.652 
1 130.029 
1 100.848 
1 135.885 
1 148.025 
1 166.525 
1 106.621 
1 145.119 
1 122.006 
1 150.174 
1 130.404 
1 151.43 
1 147.555 
1 128.428 
1 135.889 
1 141.613 
1 165.172 
1 131.714 
1 136.731 
1 131.911 
1 155.924 
1 156.545 
1 160.557 
1 127.488 
1 149.939 
1 123.237 
1 108.639 
1 149.763 
1 150.575 
1 124.752 
1 161.765 
1 137.107 
1 130.14 
1 111.99 
1 132.663 
1 130.129 
1 142.619 
1 120.959 
1 148.21 
1 174.322 
1 119.353 
1 144.637 
1 165.773 
1 127.503 
1 128.301 
1 129.927 
1 135.046 
1 138.661 
1 156.203 
1 170.63 
1 134.948 
1 136.863 
1 156.184 
1 149.752 
1 146.114 
1 147.362 
1 110.678 
1 145.25 
1 145.153 
1 166.39 
1 126.126 
1 135.91 
1 163.285 
1 155.324 
1 140.376 
1 167.119 
1 162.708 
1 156.776 
1 155.012 
1 143.574 
1 122.092 
1 152.161 
1 118.682 
1 158.876 
1 132.5 
1 160.212 
ITEM: TIMESTEP
52000
ITEM: NUMBER OF ENTRIES
100
ITEM: BOX BOUNDS pp pp pp
0.0000000000000000e+00 3.2554049816410100e+01
0.0000000000000000e+00 3.2554049816410100e+01
0.0000000000000000e+00 3.2554049816410100e+01
ITEM: ENTRIES c_ATYPE[*] c_ANGLE[*] 
1 149.73 
1 113.473 
1 128.042 
1 175.293 
1 126.552 
1 163.403 
1 170.245 
1 133.995 
1 155.351 
1 142.975 
1 141.956 
1 160.82 
1 133.822 
1 141.995 
1 123.945 
1 138.671 
1 163.436 
1 134.271 
1 153.407 
1 168.304 
1 152.02 
1 146.021 
1 142.856 
1 129.622 
1 146.046 
1 131.609 
1 146.597 
1 127.482 
1 162.385 
1 132.915 
1 160.008 
1 158.9 
1 139.999 
1 140.98 
1 119.37 
1 120.166 
1 123.976 
1 127.677 
1 139.877 
1 118.294 
1 139.947 
1 159.897 
1 155.144 
1 132.008 
1 143.161 
1 126.434 
1 122.345 
1 151.83 
1 115.314 
1 145.091 
1 167.193 
1 145.341 
1 146.245 
1 145.579 
1 122.709 
1 154.566 
1 119.746 
1 170.166 
1 170.909 
1 125.504 
1 122.637 
1 130.554 
1 145.736 
1 148.331 
1 143.166 
1 91.3822 
1 152.822 
1 150.195 
1 137.625 
1 167.662 
1 161.851 
1 146.532 
1 151.155 
1 136.091 
1 138.086 
1 132.447 
1 161.877 
1 166.769 
1 136.714 
1 136.628 
1 134.607 
1 147.836 
1 167.041 
1 125.001 
1 134.671 
1 170.058 
1 125.177 
1 122.842 
1 122.235 
1 146.842 
1 162.011 
1 129.253 
1 145.725 
1 137.335 
1 170.273 
1 157.222 
1 154.344 
1 163.298 
1 159.386 
1 101.983 
ITEM: TIMESTEP
52500
ITEM: NUMBER OF ENTRIES
100
ITEM: BOX BOUNDS pp pp pp
0.0000000000000000e+00 3.2554049816410100e+01
0.0000000000000000e+00 3.2554049816410100e+01
0.0000000000000000e+00 3.2554049816410100e+01
ITEM: ENTRIES c_ATYPE[*] c_ANGLE[*] 
1 149.248 
1 133.084 
1 150.118 
1 149.239 
1 145.61 
1 119.498 
1 151.586 
1 130.279 
1 137.595 
1 154.558 
1 145.59 
1 155.983 
1 126.297 
1 125.901 
1 143.923 
1 162.268 
1 124.147 
1 154.417 
1 146.278 
1 120.75 
1 133.011 
1 149.725 
1 162.169 
1 159.213 
1 154.303 
1 126.858 
1 119.098 
1 138.25 
1 163.943 
1 148.807 
1 142.079 
1 160.395 
1 172.078 
1 123.414 
1 121.422 
1 158.57 
1 172.646 
1 124.378 
1 106.954 
1 172.253 
1 131.648 
1 149.34 
1 110.582 
1 158.232 
1 131.424 
1 149.525 
1 147.48 
1 154.29 
1 158.248 
1 123.858 
1 146.382 
1 132.41 
1 119.902 
1 141.284 
1 123.471 
1 133.254 
1 131.824 
1 169.395 
1 146.015 
1 132.625 
1 162.541 
1 169.232 
1 126.506 
1 141.751 
1 145.332 
1 128.386 
1 151.26 
1 152.144 
1 125.578 
1 121.204 
1 137.224 
1 123.903 
1 151.681 
1 130.078 
1 132.158 
1 142.215 
1 154.915 
1 123.283 
1 156.101 
1 111.703 
1 149.608 
1 99.9451 
1 139.084 
1 129.524 
1 115.419 
1 128.14 
1 130.027 
1 155.211 
1 149.976 
1 151.145 
1 162.388 
1 150.033 
1 162.109 
1 118.379 
1 143.746 
1 115.75 
1 159.074 
1 131.107 
1 107.101 
1 129.704 
ITEM: TIMESTEP
53000
ITEM: NUMBER OF ENTRIES
100
ITEM: BOX BOUNDS pp pp pp
0.0000000000000000e+00 3.2554049816410100e+01
0.0000000000000000e+00 3.2554049816410100e+01
0.0000000000000000e+00 3.2554049816410100e+01
ITEM: ENTRIES c_ATYPE[*] c_ANGLE[*] 
1 129.936 
1 147.285 
1 154.201 
1 118.11 
1 154.617 
1 168.523 
1 139.212 
1 132.961 
1 141.132 
1 146.776 
1 159.506 
1 163.501 
1 135.339 
1 175.881 
1 120.697 
1 136.7 
1 108.47 
1 115.753 
1 125.952 
1 99.1802 
1 143.216 
1 137.136 
1 134.687 
1 140.285 
1 128.574 
1 161.239 
1 128.632 
1 150.067 
1 127.29 
1 151.954 
1 146.446 
1 127.616 
1 137.097 
1 151.245 
1 147.211 
1 158.205 
1 136.549 
1 133.602 
1 153.433 
1 151.175 
1 118.531 
1 136.078 
1 123.618 
1 149.376 
1 144.331 
1 131.517 
1 125.099 
1 126.817 
1 132.773 
1 122.045 
1 119.117 
1 148.568 
1 141.998 
1 136.785 
1 143.843 
1 137.065 
1 165.579 
1 177.413 
1 161.181 
1 125.593 
1 135.417 
1 145.035 
1 124.746 
1 146.938 
1 128.399 
1 151.064 
1 144.48 
1 151.676 
1 113.645 
1 129.443 
1 123.371 
1 154.608 
1 151.38 
1 145.389 
1 144.22 
1 110.258 
1 105.939 
1 156.971 
1 123.008 
1 129.599 
1 148.84 
1 138.001 
1 152.073 
1 143.59 
1 179.454 
1 136.759 
1 124.76 
1 124.344 
1 143.238 
1 146.917 
1 126.41 
1 116.7 
1 130.17 
1 130.265 
1 136.257 
1 137.65 
1 154.748 
1 148.105 
1 132.251 
1 144.557 
ITEM: TIMESTEP
53500
ITEM: NUMBER OF ENTRIES
100
ITEM: BOX BOUNDS pp pp pp
0.0000000000000000e+00 3.2554049816410100e+01
0.0000000000000000e+00 3.2554049816410100e+01
0.0000000000000000e+00 3.2554049816410100e+01
ITEM: ENTRIES c_ATYPE[*] c_ANGLE[*] 
1 153.734 
1 133.637 
1 140.185 
1 138.789 
1 165.374 
1 145.196 
1 149.61 
1 156.018 
1 161.923 
1 153.736 
1 125.192 
1 142.136 
1 156.294 
1 142.788 
1 138.295 
1 113.867 
1 143.056 
1 162.209 
1 136.484 
1 160.847 
1 167.012 
1 164.535 
1 158.117 
1 128.742 
1 117.495 
1 153.152 
1 146.096 
1 145.479 
1 119.995 
1 148.203 
1 146.503 
1 128.746 
1 123.567 
1 141.2 
1 143.199 
1 142.257 
1 109.159 
1 137.257 
1 134.103 
1 136.792 
1 140.896 
1 146.023 
1 135.222 
1 112.412 
1 174.007 
1 130.359 
1 135.088 
1 124.825 
1 125.736 
1 118.328 
1 125.994 
1 127.77 
1 143.829 
1 153.699 
1 134.061 
1 150.194 
1 138.338 
1 146.633 
1 145.652 
1 143.588 
1 153.165 
1 150.589 
1 127.36 
1 139.268 
1 119.034 
1 113.319 
1 130.286 
1 134.218 
1 167.504 
1 116.793 
1 129.456 
1 150.574 
1 157.439 
1 152.382 
1 137.211 
1 159.263 
1 152.619 
1 132.214 
1 125.481 
1 159.376 
1 138.483 
1 151.659 
1 127.715 
1 142.374 
1 122.325 
1 146.04 
1 123.303 
1 121.783 
1 143.782 
1 152.724 
1 144.1 
1 123.491 
1 102.016 
1 139.421 
1 119.85 
1 158.796 
1 129.45 
1 130.4 
1 135.599 
1 136.919 
ITEM: TIMESTEP
54000
ITEM: NUMBER OF ENTRIES
100
ITEM: BOX BOUNDS pp pp pp
0.0000000000000000e+00 3.2554049816410100e+01
0.0000000000000000e+00 3.2554049816410100e+01
0.0000000000000000e+00 3.2554049816410100e+01
ITEM: ENTRIES c_ATYPE[*] c_ANGLE[*] 
1 123.882 
1 149.827 
1 165.31 
1 155.21 
1 127.058 
1 140.807 
1 165.2 
1 156.823 
1 119.505 
1 164.671 
1 138.307 
1 157.041 
1 111.956 
1 167.494 
1 117.994 
1 102.43 
1 103.415 
1 150.74 
1 144.566 
1 158.342 
1 128.148 
1 104.319 
1 168.624 
1 137.442 
1 127.118 
1 106.837 
1 149.946 
1 118.613 
1 118.332 
1 149.35 
1 137.096 
1 129.572 
1 128.281 
1 146.016 
1 126.588 
1 153.232 
1 138.285 
1 127.677 
1 157.073 
1 146.791 
1 166.594 
1 109.183 
1 154.417 
1 133.966 
1 151.859 
1 110.653 
1 143.575 
1 132.698 
1 109.797 
1 106.127 
1 152.489 
1 122.412 
1 127.458 
1 160.645 
1 107.753 
1 129.96 
1 119.147 
1 141.11 
1 110.918 
1 119.891 
1 170.282 
1 129.58 
1 134.089 
1 124.025 
1 142.128 
1 134.173 
1 154.9 
1 97.631 
1 163.786 
1 159.167 
1 135.145 
1 127.317 
1 122.755 
1 151.656 
1 139.407 
1 148.4 
1 157.433 
1 158.567 
1 146.348 
1 156.825 
1 143.215 
1 125.707 
1 143.766 
1 165.442 
1 163.05 
1 139.193 
1 128.776 
1 156.832 
1 150.846 
1 131.579 
1 146.318 
1 133.177 
1 140.537 
1 135.191 
1 114.508 
1 117.514 
1 145.407 
1 158.539 
1 170.232 
1 122.022 
ITEM: TIMESTEP
54500
ITEM: NUMBER OF ENTRIES
100
ITEM: BOX BOUNDS pp pp pp
0.0000000000000000e+00 3.2554049816410100e+01
0.0000000000000000e+00 3.2554049816410100e+01
0.0000000000000000e+00 3.2554049816410100e+01
ITEM: ENTRIES c_ATYPE[*] c_ANGLE[*] 
1 137.853 
1 159.364 
1 164.01 
1 115.553 
1 142.358 
1 114.614 
1 120.731 
1 171.961 
1 131.382 
1 151.113 
1 142.42 
1 130.218 
1 112.048 
1 163.681 
1 129.832 
1 151.161 
1 149.556 
1 164.701 
1 122.438 
1 136.829 
1 169.761 
1 116.125 
1 148.925 
1 139.337 
1 119.244 
1 133.225 
1 149.92 
1 164.946 
1 151.294 
1 138.328 
1 149.265 
1 155.812 
1 148.218 
1 149.522 
1 167.677 
1 149.634 
1 76.8978 
1 146.37 
1 154.768 
1 146.397 
1 136.778 
1 153.501 
1 136.382 
1 131.441 
1 141.921 
1 132.521 
1 135.067 
1 122.124 
1 149.875 
1 140.369 
1 166.934 
1 145.335 
1 142.242 
1 104.677 
1 127.683 
1 153.171 
1 138.664 
1 161.374 
1 125.789 
1 133.827 
1 131.927 
1 143.39 
1 115.999 
1 117.405 
1 161.628 
1 122.666 
1 141.02 
1 151.371 
1 145.508 
1 137.612 
1 150.558 
1 133.41 
1 139.375 
1 122.236 
1 139.326 
1 161.086 
1 141.042 
1 100.365 
1 173.304 
1 124.088 
1 150.476 
1 120.812 
1 128.444 
1 113.978 
1 120.441 
1 158.487 
1 142.948 
1 150.025 
1 122.283 
1 109.616 
1 141.317 
1 176.389 
1 172.833 
1 176.976 
1 138.124 
1 141.859 
1 121.728 
1 110.217 
1 125.878 
1 140.269 
ITEM: TIMESTEP
55000
ITEM: NUMBER OF ENTRIES
100
ITEM: BOX BOUNDS pp pp pp
0.0000000000000000e+00 3.2554049816410100e+01
0.0000000000000000e+00 3.2554049816410100e+01
0.0000000000000000e+00 3.2554049816410100e+01
ITEM: ENTRIES c_ATYPE[*] c_ANGLE[*] 
1 114.396 
1 128.504 
1 127.119 
1 159.378 
1 130.129 
1 174.243 
1 117.376 
1 156.746 
1 143.3 
1 162.038 
1 153.072 
1 150.876 
1 149.44 
1 124.522 
1 131.099 
1 145.122 
1 148.086 
1 163.585 
1 150.866 
1 98.5145 
1 152.128 
1 137.613 
1 166.857 
1 137.684 
1 119.497 
1 174.892 
1 149.735 
1 119.211 
1 135.292 
1 170.056 
1 153.437 
1 129.528 
1 136.428 
1 160.208 
1 162.615 
1 154.02 
1 125.188 
1 136.085 
1 128.199 
1 129.359 
1 167.179 
1 125.552 
1 153.917 
1 173.834 
1 130.148 
1 124.838 
1 132.806 
1 175.015 
1 137.509 
1 153.683 
1 120.078 
1 177.004 
1 153.652 
1 162.204 
1 143.608 
1 127.875 
1 137.578 
1 127 
1 117.441 
1 140.5 
1 133.838 
1 125.555 
1 164.572 
1 165.663 
1 125.619 
1 121.438 
1 137.956 
1 128.364 
1 143.738 
1 124.959 
1 142.356 
1 142.453 
1 156.099 
1 124.805 
1 173.451 
1 134.929 
1 121.667 
1 167.851 
1 147.506 
1 149.244 
1 163.281 
1 142.373 
1 116.348 
1 134.869 
1 133.027 
1 122.685 
1 103.724 
1 165.905 
1 161.997 
1 111.306 
1 132.603 
1 169.471 
1 145.338 
1 167.125 
1 128.376 
1 162.565 
1 146.221 
1 123.593 
1 159.544 
1 128.627 
ITEM: TIMESTEP
55500
ITEM: NUMBER OF ENTRIES
100
ITEM: BOX BOUNDS pp pp pp
0.0000000000000000e+00 3.2554049816410100e+01
0.0000000000000000e+00 3.2554049816410100e+01
0.0000000000000000e+00 3.2554049816410100e+01
ITEM: ENTRIES c_ATYPE[*] c_ANGLE[*] 
1 164.155 
1 136.577 
1 137.01 
1 130.957 
1 127.355 
1 116.683 
1 153.61 
1 131.226 
1 123.159 
1 124.448 
1 128.452 
1 146.153 
1 136.626 
1 131.482 
1 162.578 
1 161.64 
1 147.572 
1 147.029 
1 147.32 
1 117.143 
1 137.215 
1 174.845 
1 118.875 
1 156.438 
1 130.318 
1 157.11 
1 146.796 
1 137.641 
1 110.696 
1 161.651 
1 156.891 
1 147.862 
1 141.736 
1 140.142 
1 159.037 
1 170.009 
1 163.321 
1 147.727 
1 139.192 
1 137.542 
1 132.467 
1 118.844 
1 125.579 
1 129.128 
1 117.688 
1 159.007 
1 140.057 
1 138.624 
1 158.666 
1 159.301 
1 148.111 
1 123.346 
1 144.987 
1 139.15 
1 101.978 
1 140.81 
1 122.943 
1 119.519 
1 112.282 
1 147.768 
1 147.922 
1 165.142 
1 146.218 
1 101.943 
1 163.325 
1 145.3 
1 157.027 
1 120.924 
1 134.593 
1 149.375 
1 119.166 
1 169.112 
1 131.195 
1 141.749 
1 173.908 
1 146.374 
1 115.264 
1 140.613 
1 153.686 
1 141.193 
1 115.465 
1 170.061 
1 134.86 
1 135.332 
1 168.703 
1 133.426 
1 145.259 
1 121.453 
1 134.357 
1 153.145 
1 149.248 
1 106.352 
1 130.107 
1 147.61 
1 136.867 
1 124.367 
1 128.469 
1 120.1 
1 130.113 
1 144.505 
ITEM: TIMESTEP
56000
ITEM: NUMBER OF ENTRIES
100
ITEM: BOX BOUNDS pp pp pp
0.0000000000000000e+00 3.2554049816410100e+01
0.0000000000000000e+00 3.2554049816410100e+01
0.0000000000000000e+00 3.2554049816410100e+01
ITEM: ENTRIES c_ATYPE[*] c_ANGLE[*] 
1 141.116 
1 106.608 
1 155.163 
1 159.159 
1 134.378 
1 142.404 
1 162.088 
1 129.309 
1 152.765 
1 155.418 
1 96.6138 
1 147.634 
1 129.086 
1 133.032 
1 150.629 
1 138.389 
1 128.55 
1 131.356 
1 149.741 
1 121.307 
1 160.363 
1 118.137 
1 144.089 
1 124.06 
1 140.246 
1 119.94 
1 146.372 
1 161.418 
1 171.967 
1 108.587 
1 123.76 
1 160.183 
1 172.272 
1 136.984 
1 100.833 
1 154.965 
1 109.552 
1 109.13 
1 149.201 
1 142.062 
1 133.492 
1 130.855 
1 122.124 
1 116.147 
1 131.976 
1 158.334 
1 124.226 
1 165.854 
1 148.035 
1 141.578 
1 129.196 
1 159.108 
1 128.767 
1 128.967 
1 175.808 
1 174.794 
1 149.957 
1 146.503 
1 175.171 
1 148.749 
1 112.461 
1 148.282 
1 141.195 
1 139.249 
1 149.319 
1 160.66 
1 139.839 
1 124.976 
1 112.568 
1 132.452 
1 146.11 
1 153.577 
1 170.903 
1 132.428 
1 138.233 
1 148.64 
1 143.595 
1 147.834 
1 123.419 
1 104.51 
1 132.385 
1 118.344 
1 154.911 
1 129.404 
1 123.79 
1 125.047 
1 161.002 
1 171.016 
1 137.952 
1 148.763 
1 147.895 
1 152.143 
1 128.433 
1 144.851 
1 161.685 
1 146.775 
1 130.945 
1 137.609 
1 170.26 
1 127.167 
ITEM: TIMESTEP
56500
ITEM: NUMBER OF ENTRIES
100
ITEM: BOX BOUNDS pp pp pp
0.0000000000000000e+00 3.2554049816410100e+01
0.0000000000000000e+00 3.2554049816410100e+01
0.0000000000000000e+00 3.2554049816410100e+01
ITEM: ENTRIES c_ATYPE[*] c_ANGLE[*] 
1 159.011 
1 140.917 
1 94.4973 
1 136.663 
1 143.113 
1 162.417 
1 151.41 
1 158.646 
1 144.298 
1 152.501 
1 131.597 
1 147.94 
1 150.304 
1 127.975 
1 143.435 
1 162.748 
1 128.539 
1 128.194 
1 148.12 
1 136.206 
1 170.642 
1 160.893 
1 133.693 
1 148.084 
1 130.545 
1 143.737 
1 147.547 
1 122.338 
1 134.442 
1 160.139 
1 153.656 
1 149.463 
1 148.336 
1 156.362 
1 141.407 
1 150.473 
1 107.715 
1 148.881 
1 154.386 
1 135.538 
1 119.529 
1 140.644 
1 173.266 
1 137.111 
1 146.852 
1 137.236 
1 122.032 
1 142.99 
1 146.26 
1 152.372 
1 144.162 
1 173.681 
1 122.684 
1 146.587 
1 115.007 
1 133.57 
1 154.96 
1 113.67 
1 169.126 
1 127.176 
1 86.3655 
1 170.025 
1 99.8978 
1 134.802 
1 160.883 
1 168.445 
1 140.462 
1 123.316 
1 118.784 
1 152.472 
1 134.1 
1 152.172 
1 157.002 
1 149.274 
1 135.892 
1 141.408 
1 128.547 
1 134.565 
1 144.838 
1 136.883 
1 159.501 
1 164.579 
1 123.535 
1 162.715 
1 157.371 
1 129.719 
1 145.972 
1 132.973 
1 170.635 
1 134.901 
1 164.928 
1 165.491 
1 144.667 
1 137.972 
1 142.03 
1 164.688 
1 125.218 
1 168.627 
1 142.821 
1 124.509 
ITEM: TIMESTEP
57000
ITEM: NUMBER OF ENTRIES
100
ITEM: BOX BOUNDS pp pp pp
0.0000000000000000e+00 3.2554049816410100e+01
0.0000000000000000e+00 3.2554049816410100e+01
0.0000000000000000e+00 3.2554049816410100e+01
ITEM: ENTRIES c_ATYPE[*] c_ANGLE[*] 
1 139.384 
1 142.767 
1 152.117 
1 161.395 
1 129.338 
1 150.735 
1 156.18 
1 168.668 
1 142.748 
1 160.496 
1 121.314 
1 165.284 
1 151.733 
1 167.482 
1 150.504 
1 128.737 
1 171.728 
1 132.729 
1 142.823 
1 118.779 
1 153.334 
1 136.684 
1 126.02 
1 139.436 
1 145.128 
1 157.473 
1 136.527 
1 141.047 
1 148.446 
1 137.412 
1 129.901 
1 137.809 
1 106.898 
1 104.812 
1 158.1 
1 169.627 
1 134.054 
1 170.684 
1 165.945 
1 164.762 
1 133.796 
1 136.323 
1 140.096 
1 149.454 
1 151.095 
1 134.015 
1 172.349 
1 156.132 
1 128.959 
1 135.532 
1 142.938 
1 127.975 
1 128.9 
1 126.381 
1 101.285 
1 143.822 
1 131.344 
1 141.933 
1 123.218 
1 127.083 
1 147.518 
1 167.301 
1 124.135 
1 149.525 
1 133.614 
1 135.927 
1 149.023 
1 140.132 
1 107.02 
1 158.643 
1 147.692 
1 155.669 
1 178.209 
1 147.763 
1 141.629 
1 137.071 
1 117.71 
1 126.212 
1 168.027 
1 146.278 
1 174.371 
1 152.213 
1 132.196 
1 175.034 
1 114.432 
1 132.737 
1 150.625 
1 156.702 
1 169.708 
1 149.285 
1 174.085 
1 129.931 
1 139.351 
1 142.709 
1 104.804 
1 130.967 
1 152.57 
1 128.843 
1 131.127 
1 128.566 
ITEM: TIMESTEP
57500
ITEM: NUMBER OF ENTRIES
100
ITEM: BOX BOUNDS pp pp pp
0.0000000000000000e+00 3.2554049816410100e+01
0.0000000000000000e+00 3.2554049816410100e+01
0.0000000000000000e+00 3.2554049816410100e+01
ITEM: ENTRIES c_ATYPE[*] c_ANGLE[*] 
1 145.373 
1 169.969 
1 165.405 
1 144.898 
1 152.08 
1 141.347 
1 163.711 
1 98.9687 
1 116.83 
1 163.365 
1 150.426 
1 157.863 
1 165.335 
1 148.247 
1 171.134 
1 144.147 
1 137.82 
1 132.632 
1 147.418 
1 140.889 
1 135.038 
1 168.724 
1 124.123 
1 130.121 
1 159.569 
1 173.558 
1 156.129 
1 164.698 
1 144.587 
1 144.806 
1 129.539 
1 144.028 
1 135.438 
1 160.226 
1 125.912 
1 136.825 
1 129.627 
1 112.531 
1 159.848 
1 111.765 
1 150.54 
1 157.12 
1 132.876 
1 139.691 
1 136.602 
1 177.513 
1 158.855 
1 149.361 
1 146.945 
1 138.264 
1 133.675 
1 147.347 
1 153.565 
1 148.094 
1 143.252 
1 147.247 
1 156.163 
1 147.095 
1 152.026 
1 117.23 
1 175.111 
1 123.322 
1 168.988 
1 118.155 
1 143.829 
1 138.261 
1 114.456 
1 115.799 
1 115.402 
1 125.091 
1 136.483 
1 121.872 
1 126.549 
1 124.882 
1 137.723 
1 114.991 
1 126.101 
1 132.748 
1 128.441 
1 129.072 
1 146.479 
1 142.53 
1 169.416 
1 148.417 
1 118.123 
1 154.143 
1 128.823 
1 120.451 
1 159.445 
1 136.526 
1 140.92 
1 140.452 
1 127.115 
1 153.177 
1 158.571 
1 140.378 
1 142.161 
1 134.724 
1 118.591 
1 113.911 
ITEM: TIMESTEP
58000
ITEM: NUMBER OF ENTRIES
100
ITEM: BOX BOUNDS pp pp pp
0.0000000000000000e+00 3.2554049816410100e+01
0.0000000000000000e+00 3.2554049816410100e+01
0.0000000000000000e+00 3.2554049816410100e+01
ITEM: ENTRIES c_ATYPE[*] c_ANGLE[*] 
1 129.863 
1 151.271 
1 127.922 
1 136.374 
1 143.109 
1 119.476 
1 148.171 
1 150.618 
1 160.508 
1 166.201 
1 144.97 
1 140.288 
1 157.904 
1 159.093 
1 134.682 
1 121.353 
1 130.965 
1 166.749 
1 173.902 
1 142.465 
1 144.375 
1 121.576 
1 132.847 
1 115.515 
1 136.526 
1 143.452 
1 131.412 
1 134.944 
1 117.96 
1 131.672 
1 147.591 
1 149.098 
1 136.951 
1 136.725 
1 141.062 
1 151.391 
1 153.772 
1 129.67 
1 131.329 
1 156.214 
1 165.661 
1 142.116 
1 154.603 
1 165.823 
1 151.299 
1 132.883 
1 153.146 
1 140.276 
1 154.22 
1 165.683 
1 153.471 
1 131.881 
1 166.782 
1 162.343 
1 161.159 
1 134.144 
1 159.3 
1 156.3 
1 138.565 
1 160.669 
1 148.589 
1 160.81 
1 173.861 
1 163.589 
1 159.458 
1 159.843 
1 157.936 
1 138.024 
1 146.411 
1 140.814 
1 110.285 
1 172.904 
1 143.021 
1 160.287 
1 155.76 
1 158.193 
1 146.618 
1 133.776 
1 158.414 
1 143.131 
1 132.408 
1 133.217 
1 135.8 
1 155.787 
1 129.608 
1 117.502 
1 149.042 
1 138.431 
1 148.329 
1 161.082 
1 119.817 
1 139.383 
1 156.08 
1 144.5 
1 171.696 
1 145.441 
1 148.056 
1 172.741 
1 157.967 
1 132.325 
ITEM: TIMESTEP
58500
ITEM: NUMBER OF ENTRIES
100
ITEM: BOX BOUNDS pp pp pp
0.0000000000000000e+00 3.2554049816410100e+01
0.0000000000000000e+00 3.2554049816410100e+01
0.0000000000000000e+00 3.2554049816410100e+01
ITEM: ENTRIES c_ATYPE[*] c_ANGLE[*] 
1 165.401 
1 146.736 
1 121.935 
1 131.387 
1 133.688 
1 136.376 
1 140.371 
1 129.484 
1 137.28 
1 122.892 
1 141.081 
1 133.104 
1 127.128 
1 137.618 
1 129.123 
1 109.512 
1 143.145 
1 153.611 
1 154.991 
1 137.607 
1 139.224 
1 151.747 
1 148.362 
1 168.665 
1 158.561 
1 136.212 
1 155.768 
1 146.225 
1 110.721 
1 150.114 
1 139.23 
1 148.284 
1 136.777 
1 153.59 
1 155.116 
1 124.422 
1 116.119 
1 133.645 
1 158.693 
1 131.673 
1 155.797 
1 127.136 
1 149.396 
1 154.34 
1 164.52 
1 130.118 
1 140.973 
1 140.275 
1 172.023 
1 152.511 
1 148.874 
1 128.704 
1 135.797 
1 138.249 
1 152.443 
1 169.745 
1 152.302 
1 149.782 
1 116.189 
1 118.849 
1 138.204 
1 142.912 
1 142.715 
1 137.278 
1 118.167 
1 142.954 
1 138.679 
1 146.861 
1 150.144 
1 164.056 
1 148.292 
1 122.24 
1 139.916 
1 158.969 
1 143.209 
1 108.983 
1 113.558 
1 160.316 
1 123.449 
1 130.763 
1 150.889 
1 132.431 
1 124.416 
1 153.863 
1 133.719 
1 134.834 
1 139.799 
1 124.497 
1 127.935 
1 133.812 
1 143.404 
1 144.458 
1 97.4331 
1 168.512 
1 165.903 
1 158.256 
1 156.91 
1 138.215 
1 116.265 
1 126.724 
ITEM: TIMESTEP
59000
ITEM: NUMBER OF ENTRIES
100
ITEM: BOX BOUNDS pp pp pp
0.0000000000000000e+00 3.2554049816410100e+01
0.0000000000000000e+00 3.2554049816410100e+01
0.0000000000000000e+00 3.2554049816410100e+01
ITEM: ENTRIES c_ATYPE[*] c_ANGLE[*] 
1 145.983 
1 120.665 
1 150.999 
1 131.424 
1 120.389 
1 142.339 
1 114.994 
1 153.395 
1 127.369 
1 147.15 
1 157.676 
1 113.926 
1 138.416 
1 155.941 
1 178.655 
1 165.952 
1 145.99 
1 125.047 
1 122.776 
1 125.826 
1 138.05 
1 132.697 
1 105.535 
1 126.911 
1 127.9 
1 163.902 
1 144.845 
1 158.059 
1 160.723 
1 137.695 
1 142.388 
1 158.393 
1 147.728 
1 155.036 
1 125.123 
1 149.795 
1 113.329 
1 130.184 
1 168.787 
1 133.797 
1 134.396 
1 139.639 
1 125.942 
1 139.639 
1 150.217 
1 163.524 
1 151.745 
1 141.914 
1 160.998 
1 147.11 
1 134.939 
1 151.105 
1 113.179 
1 163.734 
1 122.345 
1 155.295 
1 161.191 
1 128.836 
1 129.165 
1 146.172 
1 127.442 
1 159.114 
1 134.237 
1 110.893 
1 143.29 
1 151.682 
1 152.305 
1 142.982 
1 157.838 
1 155.851 
1 148.124 
1 131.506 
1 140.011 
1 140.372 
1 140.608 
1 158.017 
1 105.591 
1 135.371 
1 154.741 
1 135.346 
1 129.318 
1 129.503 
1 140.039 
1 141.778 
1 126.855 
1 141.297 
1 150.315 
1 126.969 
1 121.488 
1 153.434 
1 135.69 
1 158.5 
1 127.047 
1 155.592 
1 145.953 
1 136.417 
1 167.196 
1 140.899 
1 134.433 
1 156.049 
ITEM: TIMESTEP
59500
ITEM: NUMBER OF ENTRIES
100
ITEM: BOX BOUNDS pp pp pp
0.0000000000000000e+00 3.2554049816410100e+01
0.0000000000000000e+00 3.2554049816410100e+01
0.0000000000000000e+00 3.2554049816410100e+01
ITEM: ENTRIES c_ATYPE[*] c_ANGLE[*] 
1 145.256 
1 119.294 
1 146.574 
1 141.977 
1 153.942 
1 157.531 
1 154.074 
1 169.258 
1 149.666 
1 141.609 
1 174.062 
1 166.552 
1 133.121 
1 147.747 
1 155.469 
1 142.819 
1 139.53 
1 120.344 
1 159.394 
1 133.744 
1 140.898 
1 129.711 
1 139.114 
1 174.17 
1 133.848 
1 151.712 
1 146.192 
1 162.447 
1 146.056 
1 120.218 
1 136.401 
1 138.656 
1 134.69 
1 129.733 
1 166.033 
1 129.972 
1 136.496 
1 167.427 
1 156.504 
1 154.086 
1 150.075 
1 152.763 
1 152.228 
1 136.363 
1 116.788 
1 155.938 
1 107.59 
1 147.541 
1 143.083 
1 164.482 
1 144.219 
1 135.702 
1 134.003 
1 121.509 
1 153.6 
1 150.569 
1 177.462 
1 178.269 
1 143.777 
1 141.841 
1 96.3418 
1 128.542 
1 121.21 
1 169.92 
1 121.527 
1 122.13 
1 129.965 
1 176.663 
1 147.193 
1 128.898 
1 130.938 
1 126.21 
1 118.656 
1 171.52 
1 157.425 
1 124.309 
1 126.684 
1 170.494 
1 137.611 
1 127.909 
1 123.019 
1 139.441 
1 140.11 
1 143.286 
1 143.236 
1 134.475 
1 138.826 
1 114.405 
1 149.395 
1 148.056 
1 169.053 
1 126.211 
1 163.254 
1 153.282 
1 155.616 
1 145.041 
1 155.626 
1 164.16 
1 154.12 
1 173.382 
ITEM: TIMESTEP
60000
ITEM: NUMBER OF ENTRIES
100
ITEM: BOX BOUNDS pp pp pp
0.0000000000000000e+00 3.2554049816410100e+01
0.0000000000000000e+00 3.2554049816410100e+01
0.0000000000000000e+00 3.2554049816410100e+01
ITEM: ENTRIES c_ATYPE[*] c_ANGLE[*] 
1 132.204 
1 124.768 
1 158.367 
1 139.515 
1 115.331 
1 167.436 
1 133.291 
1 94.5718 
1 115.921 
1 109.05 
1 150.779 
1 150.857 
1 151.368 
1 122.993 
1 132.285 
1 111.214 
1 128.748 
1 143.133 
1 139.967 
1 155.195 
1 149.641 
1 131.349 
1 127.049 
1 149.638 
1 172.499 
1 110.609 
1 170.683 
1 142.91 
1 149.921 
1 146.263 
1 121.263 
1 138.813 
1 131.362 
1 121.607 
1 160.621 
1 144.773 
1 170.2 
1 114.544 
1 162.876 
1 171.122 
1 126.808 
1 129.261 
1 160.203 
1 147.9 
1 124.247 
1 145.591 
1 129.688 
1 170.019 
1 149.526 
1 165.979 
1 141.086 
1 126.184 
1 156.327 
1 162.985 
1 138.635 
1 121.344 
1 158.845 
1 135.958 
1 117.981 
1 128.245 
1 135.669 
1 147.664 
1 132.856 
1 161.862 
1 137.376 
1 135.299 
1 147.573 
1 104.207 
1 121.524 
1 118.746 
1 124.334 
1 150.245 
1 164.383 
1 134.391 
1 142.262 
1 157.769 
1 143.529 
1 139.712 
1 130.115 
1 131.841 
1 133.677 
1 110.3 
1 141.839 
1 168.317 
1 131.61 
1 144.542 
1 148.567 
1 135.816 
1 122.27 
1 131.378 
1 156.105 
1 135.791 
1 137.527 
1 106.194 
1 145.354 
1 150.088 
1 136.587 
1 141.126 
1 119.768 
1 108.391 
ITEM: TIMESTEP
60500
ITEM: NUMBER OF ENTRIES
100
ITEM: BOX BOUNDS pp pp pp
0.0000000000000000e+00 3.2554049816410100e+01
0.0000000000000000e+00 3.2554049816410100e+01
0.0000000000000000e+00 3.2554049816410100e+01
ITEM: ENTRIES c_ATYPE[*] c_ANGLE[*] 
1 121.376 
1 140.216 
1 163.481 
1 141.142 
1 143.996 
1 136.236 
1 168.141 
1 135.931 
1 114.69 
1 159.996 
1 156.024 
1 132.702 
1 120.351 
1 117.113 
1 173.255 
1 142.495 
1 126.069 
1 118.545 
1 150.17 
1 145.735 
1 123 
1 151.846 
1 146.111 
1 164.42 
1 135.663 
1 125.69 
1 159.179 
1 161.699 
1 108.182 
1 122.062 
1 146.996 
1 172.417 
1 120.385 
1 140.241 
1 116.213 
1 134.255 
1 142.711 
1 133.867 
1 150.732 
1 133.144 
1 136.78 
1 158.752 
1 134.97 
1 139.802 
1 134.11 
1 138.116 
1 148.608 
1 167.085 
1 166.175 
1 127.4 
1 142.973 
1 173.384 
1 145.415 
1 170.296 
1 146.597 
1 161.489 
1 151.616 
1 128.655 
1 139.21 
1 120.706 
1 129.939 
1 149.283 
1 152.707 
1 166.759 
1 124.404 
1 137.555 
1 106.438 
1 130.447 
1 131.556 
1 136.457 
1 153.12 
1 163.937 
1 124.587 
1 128.83 
1 156.107 
1 151.632 
1 145.264 
1 143.801 
1 144.522 
1 144.722 
1 122.007 
1 135.87 
1 142.409 
1 122.169 
1 149.048 
1 141.275 
1 141.444 
1 138.507 
1 146.723 
1 166.568 
1 132.74 
1 149.095 
1 162.023 
1 141.036 
1 127.809 
1 116.482 
1 138.117 
1 141.096 
1 114.818 
1 138.6 
ITEM: TIMESTEP
61000
ITEM: NUMBER OF ENTRIES
100
ITEM: BOX BOUNDS pp pp pp
0.0000000000000000e+00 3.2554049816410100e+01
0.0000000000000000e+00 3.2554049816410100e+01
0.0000000000000000e+00 3.2554049816410100e+01
ITEM: ENTRIES c_ATYPE[*] c_ANGLE[*] 
1 124.436 
1 145.979 
1 144.159 
1 169.766 
1 150.753 
1 138.779 
1 157.813 
1 128.037 
1 115.854 
1 149.542 
1 132.219 
1 126.918 
1 164.732 
1 142.367 
1 142.648 
1 102.145 
1 176.422 
1 129.726 
1 145.933 
1 121.897 
1 153.091 
1 148.652 
1 155.086 
1 172.045 
1 146.288 
1 155.27 
1 131.254 
1 141.897 
1 139 
1 157.018 
1 175.512 
1 150.188 
1 122.203 
1 151.353 
1 133.022 
1 136.69 
1 135.219 
1 113.601 
1 108.476 
1 142.05 
1 157.25 
1 164.246 
1 127.883 
1 152.927 
1 123.334 
1 135.836 
1 130.241 
1 143.407 
1 131.817 
1 119.095 
1 135.643 
1 130.017 
1 166.556 
1 144.734 
1 157.815 
1 147.56 
1 130.708 
1 162.553 
1 106.875 
1 147.248 
1 155.102 
1 163.382 
1 133.298 
1 137.713 
1 144.035 
1 142.052 
1 134.713 
1 128.496 
1 139.977 
1 136.827 
1 143.188 
1 119.598 
1 167.478 
1 121.572 
1 131.07 
1 134.511 
1 147.572 
1 166.523 
1 171.461 
1 144.407 
1 126.418 
1 136.742 
1 141.879 
1 146.589 
1 161.264 
1 165.866 
1 149.561 
1 161.529 
1 122.691 
1 174.218 
1 125.376 
1 108.727 
1 160.522 
1 172.68 
1 116.207 
1 130.918 
1 143.703 
1 137.539 
1 149.868 
1 125.095 
ITEM: TIMESTEP
61500
ITEM: NUMBER OF ENTRIES
100
ITEM: BOX BOUNDS pp pp pp
0.0000000000000000e+00 3.2554049816410100e+01
0.0000000000000000e+00 3.2554049816410100e+01
0.0000000000000000e+00 3.2554049816410100e+01
ITEM: ENTRIES c_ATYPE[*] c_ANGLE[*] 
1 138.63 
1 160.809 
1 160.739 
1 174.328 
1 114.985 
1 172.228 
1 163.928 
1 120.176 
1 136.811 
1 164.073 
1 79.3148 
1 175.694 
1 146.81 
1 125.034 
1 123.167 
1 161.288 
1 121.599 
1 106.073 
1 144.758 
1 141.395 
1 129.825 
1 119.365 
1 126.363 
1 130.748 
1 149.463 
1 155.085 
1 144.961 
1 159.805 