ITEM: TIMESTEP
50500
ITEM: NUMBER OF ENTRIES
200
ITEM: BOX BOUNDS pp pp pp
0.0000000000000000e+00 3.2554049816410100e+01
0.0000000000000000e+00 3.2554049816410100e+01
0.0000000000000000e+00 3.2554049816410100e+01
ITEM: ENTRIES c_BTYPE[*] c_BOND[*] 
1 4.89428 
1 4.71215 
1 4.59124 
1 4.63109 
1 4.67272 
1 4.34631 
1 5.09114 
1 5.4228 
1 4.7828 
1 4.48055 
1 3.70604 
1 4.25857 
1 3.98792 
1 4.52081 
1 4.0313 
1 4.58263 
1 4.92735 
1 4.46892 
1 4.46092 
1 4.30198 
1 3.88511 
1 4.43935 
1 4.65373 
1 4.86961 
1 4.6505 
1 4.2767 
1 4.22369 
1 4.40788 
1 4.00709 
1 4.34279 
1 3.96784 
1 4.58954 
1 4.37865 
1 4.80402 
1 4.02182 
1 4.34562 
1 5.09386 
1 4.47135 
1 4.85432 
1 4.80939 
1 4.65433 
1 3.97707 
1 4.57414 
1 4.55015 
1 5.00625 
1 5.05477 
1 4.91321 
1 5.01575 
1 4.01414 
1 5.12692 
1 4.45881 
1 4.75671 
1 4.5171 
1 4.48528 
1 4.28027 
1 4.15904 
1 4.35692 
1 4.47951 
1 5.15226 
1 4.49622 
1 4.09626 
1 4.6294 
1 5.0241 
1 4.46907 
1 4.34011 
1 3.85309 
1 5.18363 
1 4.11952 
1 5.39006 
1 4.14213 
1 4.38509 
1 3.17238 
1 4.45422 
1 4.40751 
1 5.00287 
1 3.68727 
1 4.72719 
1 5.01689 
1 4.7851 
1 4.38147 
1 4.95278 
1 4.82182 
1 5.04052 
1 4.60687 
1 4.51398 
1 3.9814 
1 3.89516 
1 3.9658 
1 4.33524 
1 4.80442 
1 4.75776 
1 5.45939 
1 4.9668 
1 3.21093 
1 4.22187 
1 4.86645 
1 5.05128 
1 3.82025 
1 4.0961 
1 3.79941 
1 4.53666 
1 3.94871 
1 4.42852 
1 4.1961 
1 4.01991 
1 5.29236 
1 4.44015 
1 4.60075 
1 3.98214 
1 3.87708 
1 4.27694 
1 4.51521 
1 3.46329 
1 4.0681 
1 4.59682 
1 4.779 
1 4.92195 
1 5.28094 
1 4.92572 
1 3.96157 
1 4.073 
1 3.80369 
1 4.46554 
1 4.45857 
1 4.42659 
1 4.35492 
1 4.70027 
1 4.24635 
1 4.67909 
1 3.7191 
1 4.19292 
1 4.95921 
1 5.11413 
1 4.95103 
1 4.07628 
1 5.00222 
1 3.85738 
1 4.52187 
1 3.95394 
1 5.31551 
1 4.04301 
1 3.92899 
1 4.59636 
1 4.56827 
1 5.17852 
1 4.57256 
1 4.57827 
1 4.11139 
1 4.6682 
1 3.94506 
1 3.70882 
1 4.85712 
1 3.65643 
1 4.78402 
1 3.81964 
1 4.32905 
1 4.58884 
1 5.10585 
1 4.82523 
1 4.36415 
1 4.58818 
1 4.768 
1 4.55983 
1 3.88365 
1 4.33155 
1 4.62278 
1 5.43116 
1 4.50102 
1 4.45445 
1 4.70715 
1 4.52104 
1 4.87257 
1 4.66027 
1 4.20351 
1 4.38861 
1 3.93413 
1 5.39198 
1 4.86304 
1 4.467 
1 4.33484 
1 5.1547 
1 4.07318 
1 4.25294 
1 4.35354 
1 4.43292 
1 4.48871 
1 3.95376 
1 4.47495 
1 4.73189 
1 3.87177 
1 3.86298 
1 4.78239 
1 3.9466 
1 4.80102 
1 5.42844 
1 3.9972 
1 4.65693 
1 4.43959 
1 5.17748 
1 4.15499 
ITEM: TIMESTEP
51000
ITEM: NUMBER OF ENTRIES
200
ITEM: BOX BOUNDS pp pp pp
0.0000000000000000e+00 3.2554049816410100e+01
0.0000000000000000e+00 3.2554049816410100e+01
0.0000000000000000e+00 3.2554049816410100e+01
ITEM: ENTRIES c_BTYPE[*] c_BOND[*] 
1 4.33965 
1 4.53466 
1 4.50432 
1 4.39522 
1 5.35563 
1 4.3325 
1 4.63882 
1 4.0045 
1 4.06073 
1 4.50223 
1 5.16187 
1 5.13627 
1 4.74434 
1 5.40891 
1 4.45754 
1 4.85567 
1 4.64381 
1 3.97834 
1 4.15582 
1 4.4704 
1 4.68101 
1 3.51495 
1 4.92852 
1 4.54702 
1 5.1529 
1 3.81501 
1 4.88433 
1 3.86967 
1 4.31024 
1 4.53587 
1 4.75853 
1 5.07619 
1 5.44966 
1 4.87721 
1 5.57276 
1 3.13071 
1 4.54142 
1 3.76518 
1 4.98651 
1 4.53428 
1 5.28902 
1 5.11657 
1 4.48933 
1 3.92001 
1 4.7555 
1 3.80278 
1 4.99801 
1 5.10306 
1 4.25733 
1 4.67438 
1 4.38408 
1 5.05732 
1 4.54065 
1 5.02617 
1 4.07504 
1 4.84088 
1 4.74387 
1 4.64165 
1 4.38196 
1 3.74186 
1 3.80488 
1 3.86081 
1 4.20017 
1 4.56506 
1 4.46549 
1 4.31692 
1 4.01522 
1 4.35617 
1 3.94694 
1 4.77623 
1 3.96794 
1 4.34735 
1 4.35275 
1 4.55883 
1 3.64902 
1 4.49721 
1 5.83766 
1 4.23648 
1 4.04923 
1 4.83091 
1 4.27064 
1 4.13951 
1 4.8611 
1 4.27027 
1 4.69922 
1 4.16227 
1 4.53134 
1 4.65373 
1 5.69478 
1 4.02957 
1 3.59607 
1 4.05375 
1 5.11585 
1 4.09268 
1 4.88048 
1 4.62339 
1 4.08043 
1 3.7955 
1 4.59503 
1 4.63195 
1 4.56764 
1 4.09178 
1 5.17752 
1 4.6126 
1 4.84535 
1 4.6631 
1 4.44912 
1 5.37844 
1 4.24364 
1 4.35486 
1 4.47987 
1 4.24173 
1 4.3665 
1 4.56489 
1 3.71631 
1 4.90282 
1 4.28671 
1 3.85875 
1 4.7686 
1 4.8359 
1 4.4135 
1 4.50924 
1 4.09223 
1 5.02152 
1 4.8679 
1 4.63911 
1 3.84233 
1 4.74543 
1 4.84695 
1 4.62896 
1 4.37669 
1 4.52742 
1 4.3707 
1 4.08212 
1 4.55538 
1 4.58425 
1 4.01725 
1 5.07283 
1 3.60722 
1 3.20711 
1 4.24054 
1 4.80811 
1 4.48 
1 4.30942 
1 4.56737 
1 4.34755 
1 5.05913 
1 4.61969 
1 4.9345 
1 4.39357 
1 4.82558 
1 4.22583 
1 4.45425 
1 4.41942 
1 4.66935 
1 4.66885 
1 4.85323 
1 4.38045 
1 4.49719 
1 4.97135 
1 3.80092 
1 5.01977 
1 4.73121 
1 4.34627 
1 4.91692 
1 4.88338 
1 4.43698 
1 4.7493 
1 4.18673 
1 3.94341 
1 4.66818 
1 5.13817 
1 4.065 
1 4.06284 
1 3.76809 
1 4.33444 
1 4.65112 
1 4.56131 
1 4.59805 
1 4.088 
1 5.09547 
1 5.74819 
1 4.64359 
1 4.53323 
1 4.64634 
1 4.70131 
1 4.30749 
1 4.55238 
1 5.02803 
1 4.39478 
1 4.39795 
1 5.14715 
1 4.44486 
1 4.61575 
1 5.42961 
1 4.37604 
1 4.67059 
1 4.94268 
1 4.97872 
1 5.10178 
ITEM: TIMESTEP
51500
ITEM: NUMBER OF ENTRIES
200
ITEM: BOX BOUNDS pp pp pp
0.0000000000000000e+00 3.2554049816410100e+01
0.0000000000000000e+00 3.2554049816410100e+01
0.0000000000000000e+00 3.2554049816410100e+01
ITEM: ENTRIES c_BTYPE[*] c_BOND[*] 
1 4.34471 
1 4.1421 
1 3.46338 
1 3.85018 
1 5.22503 
1 4.60043 
1 3.6647 
1 4.96629 
1 4.72372 
1 4.51327 
1 5.22088 
1 4.70029 
1 4.34377 
1 4.43126 
1 4.99109 
1 4.45487 
1 3.73407 
1 4.75173 
1 4.72996 
1 4.13927 
1 4.65969 
1 4.31097 
1 5.03242 
1 4.11476 
1 3.88257 
1 4.04758 
1 3.51415 
1 4.52621 
1 3.99077 
1 4.82712 
1 4.43401 
1 4.91482 
1 3.85673 
1 4.27108 
1 5.65875 
1 4.43441 
1 3.92346 
1 4.79431 
1 4.55542 
1 5.10259 
1 3.47135 
1 2.95101 
1 4.77713 
1 4.36216 
1 4.45708 
1 4.58331 
1 4.92895 
1 4.89051 
1 4.43524 
1 4.57326 
1 4.90863 
1 4.73056 
1 4.18781 
1 4.52805 
1 4.76039 
1 4.43069 
1 4.27353 
1 4.62385 
1 5.21188 
1 4.27546 
1 5.16126 
1 4.66258 
1 4.313 
1 4.60561 
1 4.51833 
1 4.32351 
1 4.64181 
1 4.87673 
1 4.33899 
1 4.38549 
1 4.80015 
1 4.16431 
1 5.15295 
1 4.94058 
1 4.20202 
1 4.94642 
1 4.33159 
1 5.08735 
1 4.51716 
1 5.06898 
1 4.59698 
1 5.42536 
1 4.76186 
1 4.41516 
1 4.53031 
1 4.21552 
1 4.65854 
1 4.04365 
1 4.94453 
1 5.16179 
1 4.67621 
1 5.09859 
1 4.82445 
1 4.77352 
1 4.63378 
1 4.8351 
1 5.01548 
1 3.71595 
1 3.90677 
1 4.83869 
1 3.69052 
1 4.75004 
1 4.9631 
1 4.47532 
1 4.42656 
1 4.07113 
1 4.42572 
1 4.65395 
1 4.7836 
1 3.85041 
1 5.61855 
1 4.30707 
1 4.61184 
1 4.99164 
1 4.33412 
1 3.88552 
1 4.07514 
1 4.53511 
1 4.83475 
1 5.14571 
1 3.96063 
1 4.11638 
1 4.52852 
1 3.88358 
1 5.16848 
1 5.00837 
1 4.17367 
1 5.46201 
1 3.97677 
1 4.64783 
1 4.2638 
1 4.99002 
1 4.53328 
1 4.03921 
1 4.34939 
1 3.92649 
1 4.63653 
1 4.94927 
1 5.25426 
1 4.27448 
1 3.71542 
1 4.26332 
1 4.62152 
1 4.79301 
1 4.69671 
1 4.15416 
1 4.35717 
1 3.72655 
1 5.13356 
1 3.94177 
1 4.02876 
1 4.35186 
1 4.01872 
1 5.03755 
1 3.5544 
1 5.443 
1 3.89445 
1 4.75152 
1 3.84452 
1 4.69037 
1 3.5185 
1 3.83667 
1 5.33595 
1 5.13236 
1 4.28022 
1 5.04456 
1 3.82291 
1 3.92782 
1 4.27147 
1 4.57819 
1 4.05677 
1 3.65677 
1 4.62721 
1 4.59205 
1 5.07886 
1 4.36057 
1 5.12732 
1 4.36201 
1 5.024 
1 5.14415 
1 4.49396 
1 4.21827 
1 5.37998 
1 4.50857 
1 4.03543 
1 4.12238 
1 4.2461 
1 4.3735 
1 4.81346 
1 4.07195 
1 4.23245 
1 4.54902 
1 4.53915 
1 5.00465 
1 4.6861 
1 4.32232 
1 4.86466 
1 5.78029 
1 4.81679 
1 4.47779 
ITEM: TIMESTEP
52000
ITEM: NUMBER OF ENTRIES
200
ITEM: BOX BOUNDS pp pp pp
0.0000000000000000e+00 3.2554049816410100e+01
0.0000000000000000e+00 3.2554049816410100e+01
0.0000000000000000e+00 3.2554049816410100e+01
ITEM: ENTRIES c_BTYPE[*] c_BOND[*] 
1 5.11566 
1 4.36366 
1 5.41203 
1 4.91916 
1 4.6933 
1 4.34963 
1 4.48593 
1 4.46662 
1 4.76538 
1 4.72991 
1 5.12241 
1 4.63455 
1 5.3481 
1 4.3404 
1 3.50893 
1 5.01076 
1 4.86504 
1 4.37141 
1 3.77781 
1 4.79202 
1 4.44175 
1 4.27685 
1 4.50129 
1 4.45384 
1 3.89937 
1 3.94144 
1 4.42151 
1 4.14392 
1 5.12454 
1 4.9729 
1 4.23286 
1 4.89442 
1 5.03526 
1 4.56938 
1 4.91944 
1 4.24938 
1 3.59593 
1 4.8714 
1 4.46911 
1 4.00976 
1 4.23353 
1 4.22484 
1 4.90924 
1 4.86655 
1 4.25234 
1 4.91969 
1 4.31987 
1 4.63415 
1 4.58201 
1 4.20337 
1 4.67513 
1 4.1657 
1 4.06077 
1 4.25885 
1 4.07116 
1 4.2593 
1 5.07101 
1 4.64181 
1 3.99333 
1 4.6103 
1 4.72891 
1 3.80695 
1 4.66838 
1 5.04822 
1 4.36235 
1 5.45426 
1 5.21965 
1 5.07825 
1 4.48389 
1 4.00907 
1 4.36737 
1 3.71825 
1 4.88758 
1 4.31358 
1 4.89906 
1 4.20905 
1 4.6088 
1 4.27625 
1 4.27832 
1 4.76581 
1 4.87841 
1 4.0956 
1 3.77971 
1 3.9556 
1 4.08622 
1 5.55652 
1 2.6306 
1 4.50002 
1 5.47958 
1 4.28105 
1 4.19872 
1 4.61228 
1 4.89942 
1 4.36835 
1 4.8243 
1 4.84196 
1 5.12649 
1 4.6918 
1 3.85048 
1 4.01014 
1 4.15342 
1 4.76752 
1 4.68142 
1 5.09422 
1 4.32129 
1 4.47669 
1 5.20141 
1 4.53885 
1 5.06325 
1 4.47132 
1 3.85045 
1 4.30376 
1 4.09997 
1 4.44009 
1 4.06384 
1 4.71657 
1 5.13944 
1 5.14451 
1 4.6982 
1 3.83313 
1 4.08379 
1 3.84695 
1 4.96146 
1 3.99717 
1 4.97449 
1 4.15349 
1 4.26819 
1 5.03582 
1 4.30934 
1 5.26028 
1 4.02772 
1 5.23911 
1 4.04017 
1 4.63529 
1 4.07485 
1 3.811 
1 3.86347 
1 4.89769 
1 4.57442 
1 3.64095 
1 3.84056 
1 4.67285 
1 4.47301 
1 4.79457 
1 4.47545 
1 4.03207 
1 4.68473 
1 4.14336 
1 4.6702 
1 3.70202 
1 4.58644 
1 4.53224 
1 4.88675 
1 4.43088 
1 4.25134 
1 4.34224 
1 4.49644 
1 4.67443 
1 5.30022 
1 4.51012 
1 5.21849 
1 4.46095 
1 4.28205 
1 4.54005 
1 4.80494 
1 4.40184 
1 4.60805 
1 5.15796 
1 4.04978 
1 4.17745 
1 5.25483 
1 4.38605 
1 4.76557 
1 4.22049 
1 5.05133 
1 4.39593 
1 4.9079 
1 4.77314 
1 4.30341 
1 4.38314 
1 5.55982 
1 5.08483 
1 4.51961 
1 5.32353 
1 4.77514 
1 4.90009 
1 3.9616 
1 4.73825 
1 4.89939 
1 4.64019 
1 3.63812 
1 4.52868 
1 4.09395 
1 4.45506 
1 4.87556 
1 5.05093 
1 3.9472 
1 4.31417 
1 4.50047 
1 4.30834 
ITEM: TIMESTEP
52500
ITEM: NUMBER OF ENTRIES
200
ITEM: BOX BOUNDS pp pp pp
0.0000000000000000e+00 3.2554049816410100e+01
0.0000000000000000e+00 3.2554049816410100e+01
0.0000000000000000e+00 3.2554049816410100e+01
ITEM: ENTRIES c_BTYPE[*] c_BOND[*] 
1 4.71182 
1 4.34447 
1 4.487 
1 4.07498 
1 4.55979 
1 4.9192 
1 4.2067 
1 4.31844 
1 4.66952 
1 4.43862 
1 4.73228 
1 4.50552 
1 4.65963 
1 4.7579 
1 5.52418 
1 4.04181 
1 4.41967 
1 4.89199 
1 4.21093 
1 4.1856 
1 3.98675 
1 4.28386 
1 3.9003 
1 4.85279 
1 4.51949 
1 4.55241 
1 4.62894 
1 4.55905 
1 4.18955 
1 3.87408 
1 4.54641 
1 3.98222 
1 4.29037 
1 4.97817 
1 4.22586 
1 4.42394 
1 4.89623 
1 4.37034 
1 5.37071 
1 4.40698 
1 4.75282 
1 4.85649 
1 5.74316 
1 3.47023 
1 5.10806 
1 4.87702 
1 3.9795 
1 3.86981 
1 4.94038 
1 3.3272 
1 4.61846 
1 3.98415 
1 4.91486 
1 5.25619 
1 4.14697 
1 4.90499 
1 3.67228 
1 5.20465 
1 4.71005 
1 4.98681 
1 4.38967 
1 5.04225 
1 5.22077 
1 4.19078 
1 3.86481 
1 5.48111 
1 5.79148 
1 4.62524 
1 4.18396 
1 3.87098 
1 4.8469 
1 4.05134 
1 5.50322 
1 4.47045 
1 4.57171 
1 4.99528 
1 4.35298 
1 4.35434 
1 4.24832 
1 4.6248 
1 3.83148 
1 4.31508 
1 4.37001 
1 3.75636 
1 5.4134 
1 4.78415 
1 4.40346 
1 5.28169 
1 4.46828 
1 4.344 
1 4.78169 
1 4.53407 
1 4.65343 
1 3.87363 
1 4.66501 
1 5.02995 
1 4.11821 
1 4.87602 
1 4.96535 
1 4.51057 
1 3.86625 
1 5.33412 
1 4.53197 
1 4.0253 
1 4.76899 
1 4.54499 
1 4.43466 
1 4.07466 
1 4.45172 
1 4.8546 
1 3.94533 
1 5.20802 
1 4.61075 
1 4.03723 
1 4.32715 
1 4.59597 
1 4.9431 
1 4.70107 
1 3.92444 
1 4.38064 
1 3.72569 
1 3.50533 
1 4.44087 
1 4.31908 
1 4.40136 
1 4.68264 
1 4.25218 
1 4.98027 
1 4.5427 
1 4.47797 
1 4.87598 
1 4.34423 
1 3.68328 
1 3.49353 
1 3.79763 
1 4.13314 
1 4.93681 
1 4.89593 
1 3.8202 
1 4.29086 
1 4.09549 
1 4.11911 
1 4.11461 
1 4.85869 
1 4.48362 
1 5.23432 
1 4.15764 
1 4.11147 
1 4.79044 
1 4.13829 
1 4.09085 
1 4.4126 
1 3.98984 
1 4.67778 
1 5.16415 
1 4.70442 
1 5.36683 
1 4.21564 
1 4.96987 
1 4.68741 
1 4.67104 
1 4.00001 
1 4.02505 
1 3.79982 
1 5.04844 
1 4.49259 
1 5.00409 
1 4.33193 
1 4.54148 
1 4.49584 
1 3.86543 
1 4.44533 
1 4.38491 
1 3.99199 
1 4.27442 
1 4.45005 
1 4.62206 
1 5.77275 
1 4.90738 
1 5.32897 
1 4.75324 
1 4.24488 
1 4.71443 
1 4.32805 
1 4.17843 
1 5.59487 
1 4.6061 
1 5.06059 
1 4.09018 
1 3.86028 
1 4.24395 
1 5.3618 
1 3.32743 
1 4.64419 
1 4.94843 
1 4.74597 
1 4.12849 
1 4.31942 
1 4.60215 
1 5.08254 
ITEM: TIMESTEP
53000
ITEM: NUMBER OF ENTRIES
200
ITEM: BOX BOUNDS pp pp pp
0.0000000000000000e+00 3.2554049816410100e+01
0.0000000000000000e+00 3.2554049816410100e+01
0.0000000000000000e+00 3.2554049816410100e+01
ITEM: ENTRIES c_BTYPE[*] c_BOND[*] 
1 4.38037 
1 4.13368 
1 4.475 
1 4.69398 
1 4.78116 
1 5.0045 
1 3.90423 
1 5.13369 
1 4.68735 
1 3.97958 
1 4.38371 
1 4.73093 
1 4.69435 
1 3.996 
1 4.19942 
1 3.90108 
1 4.28186 
1 4.89253 
1 4.0582 
1 4.5829 
1 4.23957 
1 4.1441 
1 4.65385 
1 4.83854 
1 4.17253 
1 4.51241 
1 4.74528 
1 3.92074 
1 4.7542 
1 5.21779 
1 3.93023 
1 4.72713 
1 3.67046 
1 4.37384 
1 4.82286 
1 4.29033 
1 4.45924 
1 4.58002 
1 3.69406 
1 4.44925 
1 5.46613 
1 4.60952 
1 3.45865 
1 4.57313 
1 3.92338 
1 4.76673 
1 4.40442 
1 4.55569 
1 4.52513 
1 4.69181 
1 3.06472 
1 4.37507 
1 4.01953 
1 3.9418 
1 4.16588 
1 4.14458 
1 3.49617 
1 4.13722 
1 4.79935 
1 4.31896 
1 4.83676 
1 4.08676 
1 4.09413 
1 4.38778 
1 4.56138 
1 3.98794 
1 4.13052 
1 4.14365 
1 4.43795 
1 3.8899 
1 4.44034 
1 4.79636 
1 5.13036 
1 4.83876 
1 5.15104 
1 4.19903 
1 3.82151 
1 4.46188 
1 5.6183 
1 5.15504 
1 5.28185 
1 4.23428 
1 4.78378 
1 4.70907 
1 4.47278 
1 4.48061 
1 4.76073 
1 4.06049 
1 5.04904 
1 4.70737 
1 4.5088 
1 5.171 
1 5.42333 
1 4.85653 
1 5.51168 
1 4.89588 
1 4.54491 
1 4.24786 
1 4.51021 
1 4.33446 
1 3.97538 
1 4.41449 
1 4.00839 
1 4.22073 
1 3.80968 
1 4.43024 
1 4.2678 
1 4.49355 
1 4.25267 
1 4.63962 
1 4.64481 
1 4.60477 
1 4.279 
1 4.49753 
1 5.24695 
1 5.44363 
1 4.08104 
1 4.52867 
1 3.96718 
1 3.99585 
1 3.949 
1 5.1762 
1 4.91196 
1 4.2037 
1 3.86623 
1 5.2689 
1 5.42829 
1 4.63718 
1 5.19051 
1 3.70706 
1 4.47136 
1 3.59101 
1 4.85123 
1 4.86307 
1 4.80534 
1 4.45917 
1 5.73329 
1 4.0486 
1 4.95657 
1 3.78857 
1 3.89303 
1 4.85846 
1 4.7714 
1 4.51501 
1 4.6912 
1 4.38479 
1 4.5162 
1 4.43479 
1 4.80861 
1 4.71143 
1 5.14851 
1 4.28553 
1 4.04308 
1 4.96448 
1 4.38615 
1 4.62262 
1 4.65439 
1 4.48326 
1 4.77527 
1 4.63456 
1 3.70461 
1 4.57597 
1 4.15992 
1 4.92 
1 4.57927 
1 4.57734 
1 4.38754 
1 5.01749 
1 5.24517 
1 3.90202 
1 3.96276 
1 4.92025 
1 4.15696 
1 3.90866 
1 4.37335 
1 4.80002 
1 4.20473 
1 4.31388 
1 4.40666 
1 4.2978 
1 4.1682 
1 4.12913 
1 4.58364 
1 4.6917 
1 4.53064 
1 5.10955 
1 4.74154 
1 4.0706 
1 4.52112 
1 5.25584 
1 4.81181 
1 5.05577 
1 5.23424 
1 4.43792 
1 3.92509 
1 4.93778 
1 4.69514 
1 3.69404 
1 4.82555 
1 4.70095 
ITEM: TIMESTEP
53500
ITEM: NUMBER OF ENTRIES
200
ITEM: BOX BOUNDS pp pp pp
0.0000000000000000e+00 3.2554049816410100e+01
0.0000000000000000e+00 3.2554049816410100e+01
0.0000000000000000e+00 3.2554049816410100e+01
ITEM: ENTRIES c_BTYPE[*] c_BOND[*] 
1 5.34095 
1 3.76767 
1 4.39482 
1 4.42095 
1 5.119 
1 4.3215 
1 4.28072 
1 4.62188 
1 4.21849 
1 4.31081 
1 4.12974 
1 4.62868 
1 5.02231 
1 4.10499 
1 4.38722 
1 4.9902 
1 4.24925 
1 4.60658 
1 4.43904 
1 5.15546 
1 5.73398 
1 4.43491 
1 4.79643 
1 3.64916 
1 3.81719 
1 4.66724 
1 4.22291 
1 3.84099 
1 4.06216 
1 4.64678 
1 4.751 
1 5.11729 
1 4.40662 
1 4.60047 
1 4.28891 
1 4.8183 
1 4.7195 
1 4.01293 
1 4.47616 
1 4.76028 
1 4.16385 
1 4.4437 
1 5.21628 
1 3.75282 
1 4.45644 
1 4.78027 
1 4.96129 
1 4.92631 
1 4.02178 
1 3.87178 
1 4.46821 
1 4.68974 
1 4.15936 
1 5.069 
1 4.52847 
1 4.40577 
1 5.01329 
1 4.24419 
1 4.84332 
1 3.83737 
1 3.89088 
1 4.58301 
1 4.27522 
1 3.71107 
1 3.95539 
1 5.48212 
1 5.15787 
1 4.37105 
1 4.86641 
1 4.6187 
1 4.63884 
1 4.50344 
1 4.3462 
1 4.60623 
1 5.02622 
1 5.36737 
1 3.82607 
1 5.1642 
1 5.32553 
1 4.57597 
1 4.59043 
1 5.0404 
1 4.53203 
1 4.60513 
1 5.02595 
1 3.82578 
1 4.17342 
1 4.77965 
1 4.96167 
1 4.80434 
1 4.11011 
1 4.13442 
1 3.90988 
1 5.59965 
1 4.41276 
1 3.94861 
1 4.09125 
1 4.09646 
1 5.00401 
1 4.67477 
1 4.35822 
1 4.19701 
1 4.57064 
1 4.68805 
1 4.38497 
1 3.85466 
1 4.31249 
1 3.83292 
1 3.77382 
1 4.25071 
1 4.67534 
1 5.50101 
1 4.82724 
1 3.80397 
1 4.20014 
1 4.72743 
1 4.71097 
1 3.85593 
1 4.5018 
1 5.2149 
1 4.92905 
1 4.68019 
1 4.94902 
1 5.27827 
1 4.33087 
1 5.0911 
1 4.33357 
1 3.6965 
1 4.56628 
1 3.90593 
1 4.93745 
1 4.07322 
1 4.48454 
1 4.55823 
1 3.95964 
1 4.02691 
1 4.44301 
1 4.11614 
1 4.70288 
1 4.47505 
1 4.58588 
1 4.84857 
1 4.1592 
1 4.83573 
1 4.36335 
1 3.88309 
1 4.94002 
1 4.69168 
1 4.69346 
1 4.80043 
1 4.61283 
1 4.45397 
1 4.6174 
1 3.64636 
1 3.88306 
1 4.5327 
1 4.42211 
1 4.52647 
1 4.89307 
1 4.92522 
1 4.79169 
1 4.45113 
1 4.25519 
1 4.91876 
1 5.08688 
1 4.60962 
1 4.9012 
1 3.83178 
1 4.27677 
1 4.44384 
1 4.15807 
1 4.49186 
1 4.36473 
1 5.52561 
1 4.29935 
1 5.00743 
1 4.01779 
1 4.70297 
1 4.79539 
1 5.11871 
1 5.0235 
1 4.74232 
1 4.52277 
1 4.25288 
1 4.7548 
1 5.26273 
1 4.86776 
1 4.74785 
1 4.40124 
1 4.47477 
1 4.64028 
1 5.06027 
1 4.79733 
1 4.51431 
1 4.90881 
1 4.45928 
1 4.89185 
1 4.66106 
1 4.45055 
1 4.46444 
ITEM: TIMESTEP
54000
ITEM: NUMBER OF ENTRIES
200
ITEM: BOX BOUNDS pp pp pp
0.0000000000000000e+00 3.2554049816410100e+01
0.0000000000000000e+00 3.2554049816410100e+01
0.0000000000000000e+00 3.2554049816410100e+01
ITEM: ENTRIES c_BTYPE[*] c_BOND[*] 
1 4.61729 
1 4.15726 
1 4.32036 
1 5.01653 
1 4.52456 
1 4.48829 
1 5.06839 
1 4.78762 
1 4.62999 
1 4.96531 
1 4.99517 
1 4.66041 
1 4.46806 
1 3.89049 
1 4.65334 
1 4.70384 
1 4.69284 
1 4.74028 
1 4.94236 
1 4.58818 
1 5.39002 
1 4.17707 
1 4.22432 
1 3.97141 
1 4.93813 
1 4.6345 
1 4.33379 
1 4.45182 
1 3.91863 
1 3.91245 
1 5.26142 
1 4.7462 
1 4.16198 
1 4.74096 
1 4.46791 
1 4.10417 
1 4.88071 
1 3.82173 
1 6.12253 
1 3.17762 
1 4.60436 
1 4.21366 
1 4.39351 
1 3.83143 
1 4.67226 
1 5.23109 
1 3.95102 
1 4.13615 
1 4.8569 
1 4.87138 
1 5.02058 
1 4.60591 
1 4.73874 
1 3.67879 
1 4.65084 
1 4.56016 
1 4.95166 
1 4.90022 
1 4.37012 
1 4.59577 
1 4.984 
1 4.77348 
1 5.2494 
1 5.05082 
1 3.5206 
1 4.16488 
1 4.01543 
1 4.32386 
1 4.38833 
1 4.64841 
1 5.25075 
1 3.34698 
1 4.90738 
1 4.51125 
1 4.07767 
1 5.54739 
1 4.85778 
1 3.94191 
1 4.56097 
1 3.83074 
1 3.89688 
1 4.95205 
1 4.51509 
1 3.99907 
1 4.21149 
1 5.19957 
1 5.26505 
1 5.02274 
1 4.35556 
1 4.82519 
1 3.90098 
1 4.0992 
1 4.34555 
1 3.68281 
1 4.51149 
1 3.53536 
1 4.4556 
1 5.31685 
1 4.14776 
1 4.58583 
1 3.42678 
1 4.53063 
1 4.70441 
1 5.05108 
1 4.24889 
1 4.32326 
1 4.40894 
1 4.65356 
1 4.49017 
1 3.92318 
1 4.6274 
1 4.73131 
1 4.70172 
1 4.43006 
1 5.13528 
1 4.80576 
1 4.43047 
1 4.40143 
1 4.15604 
1 3.99354 
1 3.94853 
1 4.33704 
1 4.47204 
1 4.98273 
1 5.37783 
1 4.27783 
1 4.73931 
1 4.47823 
1 4.75167 
1 4.31703 
1 4.86391 
1 4.55407 
1 4.82859 
1 4.74116 
1 3.94742 
1 4.4987 
1 4.18866 
1 3.59612 
1 4.78966 
1 4.48553 
1 4.33256 
1 4.58978 
1 4.54593 
1 4.21942 
1 4.94477 
1 5.21585 
1 4.63909 
1 3.97643 
1 5.17292 
1 4.27237 
1 4.38678 
1 4.31987 
1 5.21051 
1 4.3118 
1 3.96936 
1 4.55338 
1 4.8949 
1 4.8614 
1 4.8773 
1 4.4948 
1 4.92628 
1 4.13464 
1 4.80575 
1 4.66013 
1 5.01696 
1 4.37957 
1 4.92628 
1 4.17131 
1 4.82654 
1 4.74053 
1 3.61183 
1 4.7512 
1 5.06843 
1 4.57838 
1 4.12991 
1 4.94841 
1 4.11827 
1 4.58951 
1 4.36021 
1 4.21142 
1 4.43091 
1 5.2938 
1 3.90841 
1 4.80704 
1 3.93288 
1 4.16915 
1 4.7228 
1 5.13167 
1 4.85688 
1 4.792 
1 4.57998 
1 3.91104 
1 4.92438 
1 4.76761 
1 4.16898 
1 4.71225 
1 4.22123 
1 4.0024 
1 5.56649 
1 4.43893 
ITEM: TIMESTEP
54500
ITEM: NUMBER OF ENTRIES
200
ITEM: BOX BOUNDS pp pp pp
0.0000000000000000e+00 3.2554049816410100e+01
0.0000000000000000e+00 3.2554049816410100e+01
0.0000000000000000e+00 3.2554049816410100e+01
ITEM: ENTRIES c_BTYPE[*] c_BOND[*] 
1 4.55362 
1 4.11446 
1 4.76562 
1 4.10505 
1 4.78704 
1 4.51665 
1 4.53104 
1 4.58924 
1 4.54078 
1 4.09139 
1 4.24092 
1 4.19192 
1 3.86085 
1 3.90292 
1 4.32334 
1 4.21361 
1 3.77371 
1 4.87258 
1 4.92316 
1 5.01002 
1 4.48022 
1 3.42349 
1 5.28055 
1 5.359 
1 4.77667 
1 4.79843 
1 5.15998 
1 4.75587 
1 4.04335 
1 3.06872 
1 4.88124 
1 4.44806 
1 4.70554 
1 4.05482 
1 4.44232 
1 3.91467 
1 4.7579 
1 4.98209 
1 4.17536 
1 4.24055 
1 4.37557 
1 4.52876 
1 4.24419 
1 4.4216 
1 4.40582 
1 4.63047 
1 4.21095 
1 4.15794 
1 4.72446 
1 4.67677 
1 4.09141 
1 4.68038 
1 4.33588 
1 3.687 
1 4.63874 
1 4.70942 
1 3.98196 
1 4.34784 
1 5.37564 
1 4.05668 
1 4.36789 
1 4.59867 
1 4.87398 
1 4.97443 
1 4.65389 
1 4.41255 
1 4.68581 
1 4.8431 
1 4.66265 
1 3.95871 
1 3.50785 
1 4.34759 
1 3.98447 
1 4.68978 
1 4.47379 
1 4.64454 
1 4.51312 
1 4.3553 
1 4.11692 
1 4.49292 
1 4.37204 
1 4.10739 
1 4.31376 
1 4.11988 
1 4.47463 
1 5.21342 
1 4.91593 
1 4.87901 
1 4.25118 
1 3.80044 
1 4.81858 
1 4.51782 
1 3.84806 
1 4.30557 
1 4.66968 
1 4.94643 
1 4.52232 
1 4.37406 
1 4.35072 
1 4.7402 
1 4.54751 
1 4.8284 
1 3.76709 
1 4.33336 
1 5.12697 
1 4.92479 
1 4.51824 
1 4.96024 
1 4.62499 
1 4.3601 
1 5.57325 
1 4.41764 
1 3.97558 
1 5.08704 
1 5.03175 
1 4.8609 
1 4.33883 
1 4.8692 
1 4.74071 
1 4.11771 
1 4.62028 
1 4.75624 
1 4.79568 
1 4.42328 
1 3.85882 
1 4.48251 
1 4.02736 
1 4.68286 
1 4.92081 
1 4.24163 
1 4.38617 
1 5.03382 
1 4.3237 
1 5.29525 
1 4.80233 
1 4.4462 
1 4.76457 
1 5.37586 
1 4.23774 
1 5.5919 
1 4.17078 
1 4.99315 
1 4.70016 
1 3.5216 
1 3.83124 
1 4.31958 
1 4.81986 
1 4.79992 
1 5.32519 
1 4.74724 
1 4.2141 
1 5.13077 
1 5.60113 
1 4.23134 
1 4.21689 
1 3.99954 
1 3.97204 
1 4.28404 
1 4.52779 
1 4.97029 
1 4.33059 
1 4.51955 
1 4.86366 
1 4.35124 
1 3.93579 
1 4.87872 
1 5.58033 
1 4.48396 
1 4.30963 
1 4.7371 
1 4.94277 
1 4.97713 
1 4.97935 
1 3.96349 
1 4.66985 
1 4.86824 
1 4.18013 
1 3.55532 
1 4.88558 
1 4.84447 
1 4.68602 
1 4.96007 
1 3.57393 
1 4.35888 
1 3.88472 
1 4.48746 
1 5.03546 
1 4.89581 
1 5.0745 
1 4.74168 
1 4.52358 
1 5.30572 
1 4.55067 
1 4.8571 
1 4.7313 
1 5.47949 
1 4.34042 
1 4.42 
1 4.85469 
1 5.56893 
ITEM: TIMESTEP
55000
ITEM: NUMBER OF ENTRIES
200
ITEM: BOX BOUNDS pp pp pp
0.0000000000000000e+00 3.2554049816410100e+01
0.0000000000000000e+00 3.2554049816410100e+01
0.0000000000000000e+00 3.2554049816410100e+01
ITEM: ENTRIES c_BTYPE[*] c_BOND[*] 
1 3.63903 
1 4.35034 
1 4.58001 
1 4.4604 
1 4.97078 
1 4.12577 
1 4.33631 
1 4.24788 
1 5.30861 
1 4.9525 
1 4.22157 
1 4.82491 
1 5.3852 
1 3.80853 
1 4.35649 
1 5.43246 
1 5.18061 
1 4.49957 
1 4.27482 
1 4.67725 
1 3.46871 
1 5.6072 
1 4.51235 
1 4.76332 
1 4.54067 
1 4.39138 
1 4.16329 
1 4.91396 
1 4.69465 
1 4.23387 
1 4.26967 
1 4.98969 
1 5.1045 
1 4.65146 
1 4.57708 
1 4.02573 
1 5.49845 
1 4.53731 
1 4.53688 
1 5.62626 
1 4.82946 
1 4.79477 
1 5.51746 
1 4.42421 
1 5.23626 
1 4.84006 
1 3.78497 
1 4.47873 
1 4.15892 
1 3.98609 
1 4.09072 
1 4.87236 
1 4.19976 
1 4.02806 
1 4.90706 
1 5.00212 
1 4.30545 
1 4.82856 
1 4.04842 
1 4.29213 
1 4.8134 
1 4.3513 
1 5.2258 
1 4.96094 
1 4.44404 
1 5.22977 
1 3.64355 
1 3.90315 
1 4.07441 
1 4.7899 
1 5.04403 
1 4.07819 
1 5.01046 
1 4.42715 
1 4.876 
1 3.79703 
1 5.08983 
1 4.55396 
1 4.68269 
1 4.20563 
1 4.54123 
1 4.77022 
1 5.47189 
1 4.02992 
1 4.57709 
1 4.62828 
1 4.90729 
1 4.55185 
1 4.55436 
1 3.88132 
1 4.04698 
1 4.27315 
1 4.77558 
1 4.29611 
1 3.68383 
1 4.30425 
1 4.75642 
1 5.0747 
1 5.32287 
1 4.65863 
1 4.64436 
1 4.48765 
1 4.57013 
1 3.53531 
1 4.29084 
1 4.46275 
1 4.8141 
1 4.55428 
1 5.12104 
1 5.39661 
1 4.57377 
1 4.3402 
1 5.25063 
1 4.23049 
1 4.1886 
1 5.05523 
1 4.26235 
1 5.42639 
1 4.36428 
1 4.2615 
1 3.58146 
1 4.28527 
1 4.22207 
1 5.42413 
1 4.86491 
1 4.68096 
1 4.60229 
1 3.66992 
1 3.99522 
1 3.9449 
1 5.27498 
1 4.93044 
1 3.75116 
1 4.6492 
1 5.31182 
1 3.86041 
1 3.42496 
1 4.93464 
1 3.53291 
1 3.94378 
1 4.69572 
1 4.33562 
1 3.54645 
1 3.96674 
1 4.86721 
1 4.56191 
1 3.43882 
1 4.15645 
1 4.07796 
1 5.44675 
1 5.4066 
1 3.93653 
1 3.91577 
1 4.66227 
1 4.59375 
1 4.2834 
1 4.922 
1 4.50742 
1 3.91395 
1 3.93267 
1 5.3265 
1 4.69977 
1 4.94494 
1 4.17373 
1 4.24616 
1 4.70044 
1 4.20187 
1 3.7748 
1 4.79057 
1 3.84981 
1 3.94989 
1 5.66662 
1 4.25103 
1 5.60068 
1 4.65141 
1 4.6404 
1 4.00045 
1 4.2209 
1 4.04635 
1 4.98201 
1 4.70077 
1 4.15844 
1 3.98638 
1 4.27159 
1 5.00809 
1 3.79721 
1 4.62212 
1 3.77621 
1 5.33532 
1 4.33957 
1 4.57777 
1 4.95871 
1 5.38594 
1 3.81419 
1 4.60264 
1 4.50038 
1 4.84771 
1 4.78765 
1 4.12485 
1 4.61136 
ITEM: TIMESTEP
55500
ITEM: NUMBER OF ENTRIES
200
ITEM: BOX BOUNDS pp pp pp
0.0000000000000000e+00 3.2554049816410100e+01
0.0000000000000000e+00 3.2554049816410100e+01
0.0000000000000000e+00 3.2554049816410100e+01
ITEM: ENTRIES c_BTYPE[*] c_BOND[*] 
1 4.05369 
1 4.25724 
1 5.31031 
1 4.75251 
1 4.23068 
1 4.84958 
1 4.52718 
1 5.05456 
1 4.27335 
1 4.86347 
1 5.311 
1 4.41242 
1 4.42734 
1 5.30154 
1 4.73229 
1 5.10536 
1 4.43037 
1 3.68819 
1 4.14301 
1 4.57432 
1 3.75079 
1 4.48393 
1 5.00481 
1 4.84352 
1 4.1314 
1 5.40472 
1 6.15628 
1 3.98047 
1 4.12469 
1 4.77333 
1 3.99498 
1 4.04201 
1 4.12129 
1 4.0306 
1 4.83401 
1 5.03802 
1 3.72011 
1 4.23814 
1 4.33708 
1 4.62484 
1 4.44252 
1 4.61326 
1 4.63211 
1 4.00987 
1 4.33586 
1 4.84708 
1 4.68065 
1 4.59789 
1 4.29237 
1 4.08883 
1 4.06327 
1 4.73548 
1 5.0959 
1 5.15456 
1 4.57437 
1 4.6203 
1 4.94496 
1 4.72065 
1 4.27906 
1 3.65562 
1 3.81336 
1 4.54108 
1 4.36213 
1 4.04781 
1 4.27944 
1 4.49239 
1 4.75218 
1 4.75375 
1 4.63957 
1 4.4737 
1 4.2971 
1 4.00861 
1 4.12843 
1 3.61901 
1 5.06599 
1 4.55006 
1 4.71304 
1 4.36964 
1 4.29777 
1 4.17736 
1 4.85372 
1 4.44434 
1 5.06867 
1 4.35745 
1 4.50625 
1 4.45964 
1 5.54846 
1 4.66924 
1 4.46342 
1 4.89044 
1 5.04912 
1 4.9954 
1 5.52717 
1 4.28432 
1 4.78146 
1 4.59881 
1 4.6966 
1 3.94893 
1 4.92435 
1 4.79094 
1 4.36046 
1 4.5073 
1 4.42384 
1 4.1302 
1 5.09517 
1 5.27715 
1 4.35932 
1 4.18239 
1 4.14509 
1 4.35286 
1 4.62574 
1 4.81068 
1 4.10897 
1 4.62961 
1 4.29165 
1 4.2412 
1 3.82682 
1 4.72541 
1 5.02136 
1 4.83035 
1 4.05513 
1 3.69712 
1 4.29542 
1 4.70438 
1 4.73038 
1 4.15001 
1 4.61405 
1 4.58285 
1 4.51766 
1 4.12853 
1 4.53244 
1 4.11326 
1 4.259 
1 4.82296 
1 3.24043 
1 4.56036 
1 4.20667 
1 4.41738 
1 4.58069 
1 4.07149 
1 5.24503 
1 4.57987 
1 4.46698 
1 4.2416 
1 4.71673 
1 4.79193 
1 4.3163 
1 4.87568 
1 3.83369 
1 4.01921 
1 4.52298 
1 4.26661 
1 4.22265 
1 4.51784 
1 4.76819 
1 4.86536 
1 4.60759 
1 3.45736 
1 5.13631 
1 4.5568 
1 4.12116 
1 4.22887 
1 5.12932 
1 4.59078 
1 5.27171 
1 4.85649 
1 5.05203 
1 4.39723 
1 4.54676 
1 5.504 
1 4.32765 
1 4.7623 
1 4.23308 
1 4.79015 
1 4.72698 
1 4.62668 
1 4.75912 
1 4.55085 
1 4.08143 
1 4.10014 
1 3.63175 
1 4.51636 
1 4.884 
1 4.77157 
1 4.20233 
1 4.7378 
1 4.93245 
1 4.74009 
1 4.85593 
1 4.42437 
1 4.61259 
1 4.46455 
1 5.58313 
1 4.22729 
1 4.55344 
1 4.86086 
1 3.73823 
1 4.91205 
1 4.00802 
1 4.91399 
ITEM: TIMESTEP
56000
ITEM: NUMBER OF ENTRIES
200
ITEM: BOX BOUNDS pp pp pp
0.0000000000000000e+00 3.2554049816410100e+01
0.0000000000000000e+00 3.2554049816410100e+01
0.0000000000000000e+00 3.2554049816410100e+01
ITEM: ENTRIES c_BTYPE[*] c_BOND[*] 
1 5.26775 
1 4.61978 
1 4.44144 
1 4.8171 
1 3.62769 
1 4.50101 
1 3.95631 
1 4.73654 
1 3.91304 
1 4.3383 
1 4.2243 
1 4.7478 
1 3.67497 
1 3.8563 
1 4.86768 
1 3.81461 
1 4.04665 
1 5.35064 
1 5.52567 
1 3.86666 
1 4.29963 
1 4.77677 
1 4.92624 
1 4.4874 
1 3.81862 
1 4.81377 
1 5.54566 
1 4.26059 
1 5.16166 
1 5.22397 
1 4.97642 
1 4.87598 
1 4.46891 
1 5.76887 
1 4.13062 
1 5.17071 
1 3.97759 
1 5.19658 
1 4.14456 
1 4.76755 
1 3.3256 
1 4.43772 
1 4.96314 
1 4.26043 
1 4.66892 
1 3.84205 
1 4.49754 
1 4.92558 
1 4.12328 
1 4.86259 
1 4.15039 
1 4.04033 
1 4.89085 
1 4.08832 
1 4.26043 
1 4.11443 
1 3.97253 
1 5.04869 
1 4.86519 
1 5.23596 
1 4.6491 
1 3.47587 
1 4.35108 
1 4.8883 
1 4.27243 
1 4.59938 
1 3.88407 
1 3.50097 
1 4.5712 
1 3.95555 
1 3.88466 
1 4.23679 
1 4.01954 
1 5.50628 
1 4.71074 
1 4.63443 
1 5.16999 
1 4.66338 
1 5.0081 
1 4.86904 
1 3.7822 
1 4.85561 
1 4.93691 
1 3.45228 
1 3.90449 
1 4.65116 
1 4.57743 
1 4.95838 
1 5.27321 
1 4.52149 
1 4.62758 
1 4.7744 
1 4.36128 
1 5.07168 
1 4.1378 
1 4.30531 
1 4.24716 
1 5.45006 
1 4.65089 
1 5.23052 
1 5.39127 
1 4.34082 
1 4.90268 
1 4.46558 
1 4.77812 
1 4.27391 
1 4.4493 
1 3.96546 
1 4.66779 
1 5.30229 
1 4.80765 
1 4.13236 
1 4.41632 
1 4.82794 
1 5.3542 
1 3.70806 
1 4.63818 
1 4.41713 
1 4.5012 
1 4.32022 
1 4.53569 
1 4.05817 
1 4.19417 
1 4.41196 
1 4.41517 
1 4.78189 
1 4.57962 
1 4.83564 
1 3.94583 
1 4.71754 
1 4.22115 
1 5.01415 
1 3.91141 
1 4.50361 
1 3.9988 
1 4.52495 
1 4.322 
1 4.29665 
1 3.99508 
1 4.27198 
1 4.21136 
1 3.89669 
1 5.0093 
1 4.53144 
1 4.45517 
1 4.30281 
1 4.46295 
1 4.56073 
1 5.00163 
1 4.3113 
1 3.90762 
1 4.46409 
1 4.15485 
1 4.73783 
1 4.17968 
1 4.01721 
1 4.42211 
1 4.29057 
1 4.04945 
1 4.98369 
1 4.21262 
1 3.97853 
1 4.28094 
1 3.87268 
1 3.45803 
1 5.16717 
1 4.64352 
1 4.38376 
1 4.23429 
1 4.01156 
1 5.10707 
1 4.51072 
1 4.40964 
1 4.39811 
1 4.97665 
1 4.74298 
1 4.63187 
1 4.44941 
1 3.65616 
1 4.70858 
1 4.75408 
1 4.87282 
1 4.28116 
1 4.63935 
1 4.79961 
1 5.38105 
1 4.4678 
1 5.00067 
1 4.20405 
1 4.26847 
1 4.58381 
1 3.8241 
1 4.66028 
1 4.78048 
1 4.74744 
1 4.21755 
1 5.26271 
1 4.39498 
1 4.84269 
1 4.62316 
ITEM: TIMESTEP
56500
ITEM: NUMBER OF ENTRIES
200
ITEM: BOX BOUNDS pp pp pp
0.0000000000000000e+00 3.2554049816410100e+01
0.0000000000000000e+00 3.2554049816410100e+01
0.0000000000000000e+00 3.2554049816410100e+01
ITEM: ENTRIES c_BTYPE[*] c_BOND[*] 
1 4.70607 
1 4.24638 
1 3.88562 
1 5.45653 
1 4.32395 
1 4.86488 
1 5.23385 
1 5.14323 
1 4.45182 
1 4.37179 
1 4.56071 
1 3.91077 
1 4.58358 
1 4.23904 
1 5.1881 
1 4.52448 
1 4.23677 
1 4.15016 
1 4.04987 
1 4.00771 
1 4.47748 
1 3.87835 
1 5.12474 
1 4.43006 
1 4.86593 
1 4.32589 
1 4.03314 
1 4.29027 
1 4.3819 
1 4.17978 
1 3.87354 
1 4.575 
1 4.1195 
1 5.21172 
1 4.59813 
1 4.77275 
1 5.17468 
1 5.32774 
1 4.20434 
1 4.81655 
1 5.47879 
1 4.43482 
1 4.322 
1 3.69944 
1 3.93821 
1 5.81244 
1 5.10194 
1 4.47964 
1 4.30238 
1 5.0444 
1 5.19546 
1 5.13729 
1 4.67229 
1 4.76404 
1 4.87336 
1 3.81516 
1 4.26545 
1 4.8643 
1 3.93533 
1 4.63837 