ITEM: TIMESTEP
50500
ITEM: NUMBER OF ENTRIES
200
ITEM: BOX BOUNDS pp pp pp
0 32.5385
0 32.5385
0 32.5385
ITEM: ENTRIES c_BTYPE[*] c_BOND[*] 
1 4.35971 
1 4.45425 
1 4.5262 
1 4.42506 
1 4.70229 
1 4.08721 
1 3.85151 
1 4.54998 
1 4.43408 
1 4.85705 
1 4.90019 
1 4.57386 
1 5.22664 
1 4.887 
1 4.65825 
1 4.96128 
1 4.28105 
1 4.67827 
1 4.29102 
1 4.04566 
1 4.56108 
1 4.10757 
1 5.54475 
1 5.151 
1 5.08025 
1 4.27898 
1 4.14862 
1 4.20253 
1 4.38155 
1 4.90936 
1 4.56432 
1 4.56202 
1 4.43393 
1 4.33059 
1 4.66409 
1 3.34307 
1 5.05642 
1 4.4064 
1 4.89958 
1 4.45167 
1 4.12466 
1 4.2886 
1 3.84649 
1 4.29199 
1 4.54425 
1 5.3272 
1 4.24969 
1 4.71361 
1 5.02075 
1 4.5203 
1 4.74413 
1 4.5032 
1 4.88661 
1 4.50618 
1 4.621 
1 4.86753 
1 4.79748 
1 4.95174 
1 5.22387 
1 3.91896 
1 4.6708 
1 4.63935 
1 3.65347 
1 4.51949 
1 4.45926 
1 5.00142 
1 4.45285 
1 5.23821 
1 4.47032 
1 4.60012 
1 4.19581 
1 4.52306 
1 4.94472 
1 4.5373 
1 5.15436 
1 4.43599 
1 4.48992 
1 4.95617 
1 5.13518 
1 4.48018 
1 5.03812 
1 5.48703 
1 5.22978 
1 4.86592 
1 4.42869 
1 3.50695 
1 4.91785 
1 5.06208 
1 3.44207 
1 4.15738 
1 4.70814 
1 5.32551 
1 5.04724 
1 4.68345 
1 3.91405 
1 4.65986 
1 5.32995 
1 4.2899 
1 4.04603 
1 4.56129 
1 4.66578 
1 4.87598 
1 5.07083 
1 4.15066 
1 4.42929 
1 4.78964 
1 4.26695 
1 4.73187 
1 4.37244 
1 5.06363 
1 5.23033 
1 4.07523 
1 3.49457 
1 4.55568 
1 4.63245 
1 4.3008 
1 4.97207 
1 4.27508 
1 4.34403 
1 4.67334 
1 4.94321 
1 4.55805 
1 5.22595 
1 4.52534 
1 4.88937 
1 4.19234 
1 4.71369 
1 4.50508 
1 5.16064 
1 4.41087 
1 5.1758 
1 4.6606 
1 4.03365 
1 5.44271 
1 5.32975 
1 4.55606 
1 5.0221 
1 3.68034 
1 5.32523 
1 4.28146 
1 4.84969 
1 4.48327 
1 4.35046 
1 4.61539 
1 4.01544 
1 4.14793 
1 4.15675 
1 4.30906 
1 4.64548 
1 4.19735 
1 4.88396 
1 4.42807 
1 3.52154 
1 3.84621 
1 4.45634 
1 4.05986 
1 4.66829 
1 4.80678 
1 4.8095 
1 4.19689 
1 4.13082 
1 4.91496 
1 3.84457 
1 5.30971 
1 4.70262 
1 4.06626 
1 4.21052 
1 4.65139 
1 5.22864 
1 4.62913 
1 4.82988 
1 4.21082 
1 4.59426 
1 4.4957 
1 4.64928 
1 5.15409 
1 4.13228 
1 3.82884 
1 3.53728 
1 4.57803 
1 4.14591 
1 4.67581 
1 4.42902 
1 4.63779 
1 3.7812 
1 4.70623 
1 4.93957 
1 4.12313 
1 4.98991 
1 4.39148 
1 4.5882 
1 5.94733 
1 4.94056 
1 4.71692 
1 4.27736 
1 4.67894 
1 4.79579 
1 4.06057 
1 4.83842 
1 4.50184 
ITEM: TIMESTEP
51000
ITEM: NUMBER OF ENTRIES
200
ITEM: BOX BOUNDS pp pp pp
0 32.5385
0 32.5385
0 32.5385
ITEM: ENTRIES c_BTYPE[*] c_BOND[*] 
1 4.43308 
1 4.30597 
1 4.1737 
1 4.45199 
1 3.89709 
1 5.4158 
1 5.11848 
1 4.76606 
1 4.66157 
1 4.68094 
1 4.70092 
1 4.41462 
1 3.82405 
1 4.31758 
1 5.05045 
1 4.90786 
1 4.87243 
1 4.92188 
1 4.58928 
1 4.59911 
1 4.51634 
1 4.35993 
1 4.12951 
1 4.19445 
1 5.1644 
1 4.70317 
1 4.3536 
1 4.26734 
1 4.83173 
1 4.32253 
1 4.34144 
1 3.72184 
1 3.78262 
1 4.17555 
1 4.52869 
1 4.6771 
1 4.49411 
1 4.67955 
1 4.37217 
1 4.32827 
1 4.83854 
1 4.30312 
1 4.24241 
1 4.90963 
1 5.14207 
1 5.09333 
1 4.36055 
1 5.01006 
1 4.07176 
1 4.63392 
1 4.88043 
1 5.68987 
1 4.60407 
1 4.95487 
1 4.55435 
1 4.72016 
1 4.7967 
1 4.58211 
1 4.19747 
1 4.49829 
1 4.09533 
1 4.75086 
1 5.29282 
1 3.9684 
1 3.55687 
1 5.10547 
1 5.07286 
1 4.06136 
1 5.19061 
1 4.30786 
1 4.30957 
1 4.15045 
1 4.97247 
1 5.37293 
1 5.65368 
1 5.07833 
1 3.78732 
1 3.96122 
1 4.7911 
1 4.22431 
1 4.92415 
1 4.53055 
1 3.41705 
1 3.9323 
1 4.19695 
1 4.28192 
1 5.04475 
1 4.30636 
1 4.67123 
1 4.32754 
1 4.71293 
1 4.34358 
1 4.15389 
1 3.77516 
1 5.06771 
1 4.88665 
1 4.66695 
1 3.81657 
1 5.35378 
1 5.71794 
1 5.13515 
1 3.91215 
1 5.39132 
1 4.97322 
1 4.36259 
1 4.26885 
1 4.59262 
1 4.69237 
1 4.64941 
1 4.99639 
1 4.98593 
1 4.29989 
1 4.08181 
1 4.83563 
1 3.96523 
1 4.51866 
1 5.60815 
1 4.42808 
1 4.15474 
1 3.77821 
1 4.82242 
1 3.83972 
1 4.28634 
1 4.30831 
1 4.52329 
1 4.35509 
1 3.89204 
1 4.6376 
1 4.41686 
1 4.63658 
1 4.86554 
1 4.22969 
1 2.71879 
1 3.77243 
1 4.47733 
1 4.61488 
1 4.50706 
1 4.59233 
1 4.06442 
1 4.09053 
1 4.58683 
1 3.76499 
1 4.15172 
1 4.75991 
1 5.51787 
1 4.84196 
1 4.44571 
1 4.57882 
1 4.85741 
1 4.28246 
1 5.28494 
1 4.11519 
1 5.21887 
1 4.18059 
1 5.03269 
1 4.87972 
1 4.50357 
1 4.9166 
1 4.75788 
1 4.3683 
1 5.00585 
1 5.1527 
1 4.40139 
1 4.76978 
1 4.322 
1 4.07142 
1 4.27609 
1 4.19299 
1 4.0757 
1 4.55844 
1 4.52435 
1 4.79253 
1 3.63458 
1 4.49957 
1 4.95341 
1 4.70417 
1 4.08553 
1 4.37147 
1 4.83556 
1 4.64629 
1 4.18843 
1 4.77198 
1 4.48098 
1 4.82667 
1 4.2766 
1 4.27694 
1 5.05948 
1 4.91647 
1 4.56868 
1 5.1363 
1 5.09628 
1 3.84702 
1 3.75633 
1 4.30233 
1 4.79106 
1 5.45172 
1 4.41993 
1 5.04292 
1 3.73451 
1 4.04016 
ITEM: TIMESTEP
51500
ITEM: NUMBER OF ENTRIES
200
ITEM: BOX BOUNDS pp pp pp
0 32.5385
0 32.5385
0 32.5385
ITEM: ENTRIES c_BTYPE[*] c_BOND[*] 
1 4.08901 
1 3.79816 
1 4.74286 
1 6.01959 
1 4.30692 
1 3.44196 
1 4.42496 
1 4.59155 
1 4.79859 
1 4.9963 
1 4.76086 
1 4.90102 
1 4.50534 
1 4.54127 
1 4.33823 
1 4.01257 
1 4.85061 
1 4.94919 
1 4.68479 
1 4.40265 
1 3.65593 
1 4.97932 
1 5.37918 
1 4.99821 
1 5.04909 
1 4.37826 
1 4.87282 
1 4.58192 
1 4.84832 
1 4.94095 
1 4.36359 
1 4.88707 
1 4.6745 
1 5.00036 
1 4.96279 
1 4.40852 
1 4.94739 
1 4.31981 
1 4.48694 
1 4.16747 
1 4.63009 
1 4.69638 
1 4.7578 
1 5.36931 
1 4.73062 
1 4.47848 
1 4.54661 
1 4.29581 
1 4.83994 
1 3.59271 
1 3.80837 
1 4.41867 
1 4.56421 
1 3.10775 
1 4.42026 
1 4.81261 
1 5.06865 
1 3.80004 
1 4.17784 
1 3.2302 
1 4.88307 
1 4.68594 
1 5.14504 
1 4.73489 
1 4.05784 
1 4.32995 
1 4.73601 
1 4.52027 
1 4.65423 
1 5.37526 
1 3.70314 
1 5.07248 
1 4.13936 
1 4.57611 
1 5.07898 
1 5.0158 
1 4.31106 
1 4.50697 
1 4.50882 
1 5.02454 
1 4.59719 
1 4.38636 
1 3.94894 
1 4.49128 
1 4.97742 
1 4.7151 
1 4.55558 
1 4.61721 
1 4.28119 
1 5.00969 
1 4.72498 
1 4.37556 
1 3.6673 
1 3.92984 
1 5.29773 
1 4.38513 
1 4.22931 
1 4.14629 
1 4.47689 
1 4.57224 
1 3.72186 
1 4.79402 
1 4.82151 
1 4.91865 
1 4.18858 
1 4.83107 
1 4.62146 
1 4.84095 
1 4.71353 
1 5.29567 
1 4.56937 
1 4.02221 
1 5.01156 
1 4.05066 
1 4.63112 
1 4.76927 
1 4.17919 
1 3.71261 
1 4.35372 
1 4.75123 
1 3.90248 
1 4.46377 
1 4.42093 
1 5.28535 
1 4.62479 
1 4.50518 
1 4.67018 
1 5.42624 
1 4.60321 
1 3.6524 
1 4.14229 
1 5.39804 
1 5.42336 
1 5.33375 
1 3.68374 
1 4.35968 
1 4.25111 
1 5.26594 
1 5.13648 
1 4.64641 
1 4.99473 
1 4.73074 
1 5.29863 
1 4.66856 
1 3.27375 
1 4.86881 
1 4.94891 
1 4.53751 
1 4.95836 
1 5.36221 
1 4.74502 
1 4.67049 
1 4.88586 
1 4.39142 
1 4.37448 
1 5.27931 
1 4.19353 
1 4.92189 
1 4.20397 
1 4.19773 
1 4.72766 
1 4.99883 
1 4.21647 
1 4.95049 
1 4.06631 
1 3.95765 
1 4.8818 
1 5.06127 
1 4.2999 
1 4.70796 
1 4.61438 
1 4.72492 
1 4.23005 
1 3.96225 
1 4.34878 
1 4.41479 
1 4.57344 
1 5.24101 
1 3.6038 
1 3.06634 
1 3.69935 
1 4.82419 
1 4.25625 
1 4.77161 
1 4.72723 
1 4.14403 
1 5.79659 
1 3.91037 
1 4.56437 
1 4.61806 
1 4.98454 
1 4.55688 
1 4.319 
1 4.30844 
1 4.43733 
1 4.7088 
1 4.47605 
1 4.70163 
1 5.09877 
1 4.39254 
ITEM: TIMESTEP
52000
ITEM: NUMBER OF ENTRIES
200
ITEM: BOX BOUNDS pp pp pp
0 32.5385
0 32.5385
0 32.5385
ITEM: ENTRIES c_BTYPE[*] c_BOND[*] 
1 5.02735 
1 4.16606 
1 4.75206 
1 4.68488 
1 3.95583 
1 4.73218 
1 3.9587 
1 4.70946 
1 4.10627 
1 4.78655 
1 5.07004 
1 5.06615 
1 4.06589 
1 4.72746 
1 4.32276 
1 4.07742 
1 5.18967 
1 5.10679 
1 4.06557 
1 3.90414 
1 4.61791 
1 4.3106 
1 4.17664 
1 4.01295 
1 5.35554 
1 4.82446 
1 4.54036 
1 3.71353 
1 4.44217 
1 3.89632 
1 4.9401 
1 4.76004 
1 4.18436 
1 3.81335 
1 4.78128 
1 4.74464 
1 4.02702 
1 4.90005 
1 4.28458 
1 4.43713 
1 5.68196 
1 4.66929 
1 3.58959 
1 5.93114 
1 4.31989 
1 4.3715 
1 4.0991 
1 4.55178 
1 4.51883 
1 4.91923 
1 4.63302 
1 4.65162 
1 3.52678 
1 4.71039 
1 4.64593 
1 5.32527 
1 4.5262 
1 5.14734 
1 4.63987 
1 4.02154 
1 4.59876 
1 4.72686 
1 3.53833 
1 4.8563 
1 3.97658 
1 4.09751 
1 5.03781 
1 5.21761 
1 4.10593 
1 4.50103 
1 4.36522 
1 4.33775 
1 4.31497 
1 4.95705 
1 5.45566 
1 4.34549 
1 3.30373 
1 4.72697 
1 4.72565 
1 5.23044 
1 4.10535 
1 5.10114 
1 4.94284 
1 4.16563 
1 4.38238 
1 4.34317 
1 4.19314 
1 4.2655 
1 4.36475 
1 4.5843 
1 5.04168 
1 4.02609 
1 4.3557 
1 4.83226 
1 3.75814 
1 4.91557 
1 4.95033 
1 5.13183 
1 4.06283 
1 4.25839 
1 3.58838 
1 4.51986 
1 4.1889 
1 4.75311 
1 4.23742 
1 4.60972 
1 4.5028 
1 5.05078 
1 5.0388 
1 4.70567 
1 3.87469 
1 4.91416 
1 4.75129 
1 4.32577 
1 4.48528 
1 3.89065 
1 5.11614 
1 4.43872 
1 4.21075 
1 4.81349 
1 4.03755 
1 4.90301 
1 4.64564 
1 4.88861 
1 4.85205 
1 4.31117 
1 4.77255 
1 4.80156 
1 4.95289 
1 4.54208 
1 4.08678 
1 4.38437 
1 4.78789 
1 4.30911 
1 5.28554 
1 3.83021 
1 5.38719 
1 4.51937 
1 4.94634 
1 3.31336 
1 4.06483 
1 4.70184 
1 5.08112 
1 4.83387 
1 5.0736 
1 4.17704 
1 4.62479 
1 4.79158 
1 4.99937 
1 4.47673 
1 4.68271 
1 4.71679 
1 3.89936 
1 4.41432 
1 4.32775 
1 5.28493 
1 4.464 
1 4.88577 
1 4.55758 
1 4.80781 
1 4.21466 
1 4.71863 
1 5.35649 
1 4.9195 
1 4.18063 
1 4.03058 
1 4.26223 
1 5.33678 
1 4.64512 
1 4.54375 
1 3.92607 
1 4.52684 
1 4.6269 
1 3.90321 
1 4.7442 
1 4.59446 
1 3.82506 
1 4.97327 
1 4.53649 
1 3.97979 
1 4.29384 
1 5.04138 
1 4.34869 
1 5.46345 
1 4.51273 
1 4.78308 
1 4.79567 
1 5.48101 
1 3.53878 
1 4.72339 
1 4.86579 
1 3.78982 
1 4.80393 
1 5.23574 
1 5.02803 
1 3.70352 
1 4.39885 
1 4.90667 
1 4.30237 
1 4.20145 
ITEM: TIMESTEP
52500
ITEM: NUMBER OF ENTRIES
200
ITEM: BOX BOUNDS pp pp pp
0 32.5385
0 32.5385
0 32.5385
ITEM: ENTRIES c_BTYPE[*] c_BOND[*] 
1 3.4313 
1 4.99255 
1 4.71487 
1 4.75453 
1 4.62534 
1 4.24583 
1 4.82793 
1 4.97132 
1 4.7488 
1 4.47829 
1 4.08201 
1 5.20883 
1 4.50486 
1 5.13391 
1 4.77432 
1 3.64713 
1 4.43183 
1 4.3985 
1 4.62807 
1 4.42023 
1 4.18216 
1 4.91155 
1 4.00328 
1 4.54738 
1 4.25505 
1 3.93421 
1 4.4597 
1 5.09228 
1 5.06029 
1 4.24199 
1 4.42764 
1 4.78553 
1 4.623 
1 4.13617 
1 4.27479 
1 4.37703 
1 4.70178 
1 4.41236 
1 4.28969 
1 4.97234 
1 4.52469 
1 5.55196 
1 4.86692 
1 5.18341 
1 4.38189 
1 3.99752 
1 4.78178 
1 4.31264 
1 4.91603 
1 4.43924 
1 4.5702 
1 3.67494 
1 4.25765 
1 4.55983 
1 4.81093 
1 4.3533 
1 5.18203 
1 4.16499 
1 4.70328 
1 4.83301 
1 4.70363 
1 4.64044 
1 5.09083 
1 5.21038 
1 4.86948 
1 4.5786 
1 4.34492 
1 5.53009 
1 4.02537 
1 4.59683 
1 3.77719 
1 5.53386 
1 3.1733 
1 4.9317 
1 4.3086 
1 4.71789 
1 3.9984 
1 4.53967 
1 4.44853 
1 4.04596 
1 4.73366 
1 4.69693 
1 4.15297 
1 4.65381 
1 4.29611 
1 4.26628 
1 5.03541 
1 4.36336 
1 4.87149 
1 4.7678 
1 5.63618 
1 4.98987 
1 3.78581 
1 3.88998 
1 4.19296 
1 3.99354 
1 3.92891 
1 4.97289 
1 4.87944 
1 4.55026 
1 4.51333 
1 5.50862 
1 4.32331 
1 3.27116 
1 4.35173 
1 3.95856 
1 4.40212 
1 4.20799 
1 4.07269 
1 4.68695 
1 4.72121 
1 5.18262 
1 4.42053 
1 4.88019 
1 4.52344 
1 3.73731 
1 5.61907 
1 4.58838 
1 4.14733 
1 4.64329 
1 4.79976 
1 5.12044 
1 4.64205 
1 4.66614 
1 4.83599 
1 3.18349 
1 4.78387 
1 4.83597 
1 4.89838 
1 5.26986 
1 5.0846 
1 4.8578 
1 4.62456 
1 4.60159 
1 4.14099 
1 4.41064 
1 3.7147 
1 4.20699 
1 4.83693 
1 3.96925 
1 3.67057 
1 3.91666 
1 4.30812 
1 3.80855 
1 4.45074 
1 5.13703 
1 4.75 
1 5.24163 
1 4.37743 
1 4.67614 
1 4.65036 
1 4.26679 
1 4.7438 
1 4.41969 
1 4.6066 
1 4.54925 
1 3.98012 
1 4.90701 
1 4.23652 
1 4.75093 
1 4.23437 
1 4.83521 
1 4.10691 
1 4.51293 
1 4.1681 
1 4.72238 
1 4.43297 
1 4.06998 
1 3.9613 
1 4.58114 
1 3.77675 
1 5.45749 
1 5.19807 
1 4.34494 
1 5.65211 
1 4.89665 
1 4.68113 
1 4.5493 
1 4.47076 
1 4.18699 
1 4.58055 
1 4.26201 
1 3.85966 
1 4.38715 
1 4.31594 
1 4.26297 
1 5.01218 
1 4.42041 
1 4.44748 
1 5.05042 
1 4.88191 
1 4.37244 
1 4.03968 
1 4.35257 
1 5.02996 
1 4.05343 
1 4.17351 
1 4.34143 
1 4.63562 
1 4.76969 
ITEM: TIMESTEP
53000
ITEM: NUMBER OF ENTRIES
200
ITEM: BOX BOUNDS pp pp pp
0 32.5385
0 32.5385
0 32.5385
ITEM: ENTRIES c_BTYPE[*] c_BOND[*] 
1 4.55747 
1 4.8503 
1 4.18461 
1 4.98275 
1 4.74755 
1 4.87743 
1 5.2976 
1 4.20051 
1 4.74308 
1 3.45194 
1 4.03715 
1 5.54076 
1 4.56583 
1 4.94064 
1 5.04121 
1 4.4979 
1 4.64799 
1 4.33341 
1 4.87612 
1 4.00125 
1 4.535 
1 4.732 
1 5.90123 
1 5.12676 
1 4.34878 
1 4.34869 
1 5.38012 
1 4.5755 
1 4.55756 
1 4.29728 
1 5.40413 
1 5.56853 
1 4.70057 
1 4.31527 
1 5.02569 
1 4.52092 
1 4.73355 
1 4.85503 
1 4.22024 
1 4.12137 
1 4.81227 
1 3.62071 
1 4.42777 
1 3.08536 
1 4.80429 
1 4.77701 
1 5.35579 
1 4.91235 
1 4.50173 
1 4.79884 
1 5.04651 
1 4.35129 
1 4.1888 
1 4.64746 
1 3.49278 
1 5.09439 
1 3.63413 
1 4.56497 
1 4.62966 
1 4.4716 
1 4.92208 
1 4.12263 
1 4.55882 
1 4.0484 
1 4.02804 
1 4.90025 
1 4.43195 
1 3.88593 
1 4.70675 
1 3.88362 
1 4.17068 
1 4.3164 
1 4.55067 
1 4.9823 
1 4.16417 
1 4.22252 
1 5.09497 
1 5.01232 
1 4.39897 
1 4.79527 
1 4.85235 
1 4.2418 
1 4.19899 
1 4.45046 
1 4.08631 
1 4.28444 
1 4.75477 
1 4.16803 
1 3.46691 
1 4.93911 
1 4.55856 
1 4.02157 
1 3.55899 
1 4.58546 
1 4.29506 
1 4.66587 
1 4.60746 
1 4.63419 
1 4.33487 
1 4.34165 
1 3.78191 
1 4.50296 
1 4.54186 
1 4.68965 
1 4.81653 
1 3.93957 
1 5.53113 
1 4.04786 
1 4.6045 
1 4.98977 
1 4.82218 
1 4.43629 
1 4.50201 
1 4.31983 
1 4.19333 
1 3.75414 
1 4.43749 
1 4.4339 
1 4.24967 
1 5.25029 
1 4.52659 
1 5.32301 
1 5.78958 
1 4.69739 
1 4.41571 
1 3.54477 
1 3.42149 
1 5.23098 
1 4.30761 
1 4.79225 
1 3.97092 
1 5.13951 
1 3.49495 
1 4.33822 
1 4.58765 
1 4.53585 
1 5.25721 
1 5.39277 
1 4.56126 
1 4.74416 
1 4.64673 
1 3.69197 
1 5.02803 
1 4.0652 
1 4.20284 
1 4.90077 
1 4.01743 
1 4.38744 
1 3.88321 
1 3.72237 
1 4.5532 
1 4.80202 
1 3.73545 
1 4.82439 
1 4.30228 
1 5.16319 
1 3.63909 
1 3.59126 
1 3.86526 
1 4.78736 
1 4.66993 
1 4.32959 
1 4.47139 
1 4.54599 
1 4.56347 
1 4.65726 
1 4.23044 
1 4.37693 
1 4.70712 
1 4.51954 
1 4.38705 
1 4.17795 
1 4.53106 
1 4.38872 
1 3.78436 
1 4.77006 
1 4.39257 
1 4.85103 
1 4.38681 
1 4.49611 
1 4.6651 
1 4.48125 
1 4.16251 
1 4.07011 
1 4.91117 
1 4.76787 
1 4.45944 
1 4.63643 
1 4.88707 
1 5.09501 
1 4.01383 
1 4.46202 
1 4.67744 
1 5.07617 
1 5.0025 
1 4.51785 
1 4.7792 
1 4.81454 
1 4.29028 
1 4.76134 
ITEM: TIMESTEP
53500
ITEM: NUMBER OF ENTRIES
200
ITEM: BOX BOUNDS pp pp pp
0 32.5385
0 32.5385
0 32.5385
ITEM: ENTRIES c_BTYPE[*] c_BOND[*] 
1 5.08716 
1 4.65734 
1 3.9194 
1 4.47593 
1 3.47217 
1 4.796 
1 4.98083 
1 4.74444 
1 4.04432 
1 4.75631 
1 4.37889 
1 5.23051 
1 3.93725 
1 5.0652 
1 4.77825 
1 5.11325 
1 3.81089 
1 4.52955 
1 4.69104 
1 5.11657 
1 3.82287 
1 3.55635 
1 3.36531 
1 4.42046 
1 5.11167 
1 4.59224 
1 5.05882 
1 4.2145 
1 5.55582 
1 4.55309 
1 5.00189 
1 3.8875 
1 5.15608 
1 4.76199 
1 4.44611 
1 4.28943 
1 4.89708 
1 3.91642 
1 5.01491 
1 4.53817 
1 4.7536 
1 4.61405 
1 5.01828 
1 4.47643 
1 4.21396 
1 4.27345 
1 5.00086 
1 4.83573 
1 4.5676 
1 4.13628 
1 5.04129 
1 4.67267 
1 4.68409 
1 4.37863 
1 4.95522 
1 4.01052 
1 4.45145 
1 4.77259 
1 4.63303 
1 4.83186 
1 4.64186 
1 3.85942 
1 4.37919 
1 5.36129 
1 4.33186 
1 4.81036 
1 3.9747 
1 3.88025 
1 4.8024 
1 3.58508 
1 4.72803 
1 5.10079 
1 5.03842 
1 4.94058 
1 3.95383 
1 5.30233 
1 3.66233 
1 4.31785 
1 4.33478 
1 4.27408 
1 4.58281 
1 4.64441 
1 3.85398 
1 4.48823 
1 5.35604 
1 5.27564 
1 3.84984 
1 4.60824 
1 4.16488 
1 4.2767 
1 4.36382 
1 4.19944 
1 4.74758 
1 4.54552 
1 4.81682 
1 4.48092 
1 4.92408 
1 3.63564 
1 5.00645 
1 4.63344 
1 5.48406 
1 4.40896 
1 4.47652 
1 4.10279 
1 4.57109 
1 3.6146 
1 4.84402 
1 4.80586 
1 5.32391 
1 4.36335 
1 4.87283 
1 5.06174 
1 4.15319 
1 4.41735 
1 4.33646 
1 4.69708 
1 5.08422 
1 4.26172 
1 4.24743 
1 4.57618 
1 4.82083 
1 4.74151 
1 4.44125 
1 4.5459 
1 3.63792 
1 4.14522 
1 5.10898 
1 5.10499 
1 4.50054 
1 4.92651 
1 5.18898 
1 4.38839 
1 4.31667 
1 4.26055 
1 4.91758 
1 4.65345 
1 3.9623 
1 4.96766 
1 4.09448 
1 4.76661 
1 4.7761 
1 4.21962 
1 4.52805 
1 4.20536 
1 4.35335 
1 4.40953 
1 3.68419 
1 4.17718 
1 5.06507 
1 4.07665 
1 4.28413 
1 4.4963 
1 3.97543 
1 4.43362 
1 4.48514 
1 4.89875 
1 4.05343 
1 4.66098 
1 4.43514 
1 4.89933 
1 5.3214 
1 4.09906 
1 3.8395 
1 4.95957 
1 5.1641 
1 4.22315 
1 5.07029 
1 4.00625 
1 5.01822 
1 4.92794 
1 4.97585 
1 5.11575 
1 4.37785 
1 3.78993 
1 5.13598 
1 4.78641 
1 4.44817 
1 4.53115 
1 5.18562 
1 4.73792 
1 4.52693 
1 4.41145 
1 4.45003 
1 4.64255 
1 4.26498 
1 3.82057 
1 3.74757 
1 5.09445 
1 4.47443 
1 5.73774 
1 4.11088 
1 4.59094 
1 4.43573 
1 5.02967 
1 3.93276 
1 4.69145 
1 4.15035 
1 4.63414 
1 3.9833 
1 3.89272 
ITEM: TIMESTEP
54000
ITEM: NUMBER OF ENTRIES
200
ITEM: BOX BOUNDS pp pp pp
0 32.5385
0 32.5385
0 32.5385
ITEM: ENTRIES c_BTYPE[*] c_BOND[*] 
1 5.01457 
1 5.46052 
1 4.42207 
1 4.26237 
1 5.06033 
1 5.74214 
1 3.73411 
1 4.82554 
1 4.6053 
1 4.16751 
1 3.85272 
1 4.73349 
1 3.99312 
1 3.55628 
1 4.71141 
1 4.71112 
1 4.46741 
1 4.27413 
1 3.93503 
1 4.42733 
1 4.17918 
1 5.4446 
1 4.32255 
1 4.33387 
1 4.22604 
1 4.61355 
1 3.58752 
1 4.14711 
1 5.1232 
1 4.57891 
1 5.54132 
1 4.38311 
1 4.08077 
1 4.32748 
1 4.45022 
1 4.92501 
1 4.6335 
1 4.47603 
1 4.14691 
1 4.41274 
1 4.38048 
1 4.52417 
1 4.35572 
1 4.7528 
1 4.15251 
1 4.79281 
1 4.97431 
1 4.99626 
1 4.58246 
1 3.96055 
1 4.82952 
1 4.62957 
1 4.16239 
1 5.13537 
1 4.66095 
1 4.45643 
1 4.83448 
1 3.88348 
1 4.11258 
1 4.70788 
1 4.98628 
1 4.56241 
1 5.47498 
1 4.00581 
1 4.83732 
1 4.83607 
1 3.87253 
1 3.59813 
1 3.99924 
1 4.87203 
1 4.70373 
1 4.19994 
1 3.61242 
1 4.02912 
1 4.43714 
1 4.47077 
1 4.14208 
1 3.66731 
1 3.46521 
1 4.91109 
1 4.35893 
1 4.14147 
1 4.63966 
1 4.83428 
1 3.29634 
1 4.86266 
1 5.83998 
1 5.33345 
1 4.77346 
1 4.55111 
1 4.78702 
1 4.99692 
1 4.63257 
1 4.17278 
1 4.63552 
1 4.82127 
1 4.9321 
1 3.82213 
1 4.18285 
1 4.37715 
1 3.93432 
1 5.064 
1 5.58615 
1 4.40738 
1 5.41981 
1 5.10695 
1 4.53813 
1 5.06653 
1 4.20264 
1 3.72802 
1 4.6994 
1 5.29336 
1 4.88781 
1 4.07451 
1 4.70257 
1 5.45616 
1 4.94693 
1 4.48961 
1 4.33107 
1 4.52099 
1 4.77538 
1 5.25592 
1 4.60846 
1 5.22712 
1 4.33037 
1 4.75116 
1 5.39757 
1 4.64674 
1 4.7536 
1 4.92316 
1 4.16121 
1 4.76498 
1 4.98627 
1 4.48702 
1 4.4046 
1 4.20148 
1 4.71888 
1 4.22475 
1 3.78048 
1 4.51619 
1 5.28558 
1 4.20346 
1 3.74587 
1 4.56736 
1 4.8562 
1 3.857 
1 4.20656 
1 3.84459 
1 4.57972 
1 4.65844 
1 4.28998 
1 4.78241 
1 4.87244 
1 3.96459 
1 4.82077 
1 3.81954 
1 5.07172 
1 4.91181 
1 4.41492 
1 4.68254 
1 4.76725 
1 5.07114 
1 3.80336 
1 4.63819 
1 4.20019 
1 3.5005 
1 4.82132 
1 4.63595 
1 4.31825 
1 3.74579 
1 4.24874 
1 5.54959 
1 4.77042 
1 4.08431 
1 4.27313 
1 4.51873 
1 4.92576 
1 4.27993 
1 4.83695 
1 4.5661 
1 4.44227 
1 4.76447 
1 5.09707 
1 5.37204 
1 5.01718 
1 4.97006 
1 4.44125 
1 5.11926 
1 4.33447 
1 4.24399 
1 4.31237 
1 3.98195 
1 4.5646 
1 4.37496 
1 3.81439 
1 3.88181 
1 4.9261 
1 4.5436 
1 4.54091 
1 4.51979 
ITEM: TIMESTEP
54500
ITEM: NUMBER OF ENTRIES
200
ITEM: BOX BOUNDS pp pp pp
0 32.5385
0 32.5385
0 32.5385
ITEM: ENTRIES c_BTYPE[*] c_BOND[*] 
1 4.70374 
1 4.59267 
1 4.33961 
1 4.35513 
1 4.18468 
1 4.69633 
1 4.59295 
1 4.79596 
1 4.42848 
1 4.17674 
1 4.45327 
1 4.87263 
1 4.69428 
1 5.01341 
1 4.34187 
1 4.50088 
1 5.73725 
1 4.24655 
1 5.63457 
1 4.5552 
1 3.99421 
1 4.57723 
1 4.63717 
1 3.98239 
1 5.10621 
1 4.85014 
1 4.28904 
1 4.20401 
1 3.94842 
1 4.41977 
1 4.54794 
1 4.81979 
1 4.46549 
1 4.50745 
1 5.48007 
1 4.84661 
1 4.13872 
1 4.50992 
1 4.88415 
1 3.82673 
1 4.53315 
1 4.52602 
1 4.06001 
1 4.83522 
1 4.69516 
1 4.99752 
1 4.3676 
1 3.85603 
1 4.72499 
1 4.87741 
1 5.10293 
1 4.80457 
1 4.86213 
1 4.01999 
1 4.26489 
1 4.21015 
1 4.87418 
1 4.23481 
1 4.66926 
1 5.24021 
1 4.28528 
1 4.41979 
1 4.04539 
1 5.2744 
1 5.54703 
1 5.05301 
1 4.25198 
1 4.45165 
1 4.20818 
1 4.02139 
1 4.94256 
1 4.91196 
1 3.94686 
1 4.75213 
1 4.85837 
1 5.00199 
1 4.78457 
1 4.89693 
1 3.86146 
1 4.20565 
1 4.28644 
1 4.71497 
1 4.27266 
1 4.71475 
1 4.78061 
1 4.56229 
1 4.97586 
1 4.53944 
1 5.12618 
1 4.44347 
1 4.96297 
1 4.99209 
1 4.0844 
1 3.86721 
1 4.53097 
1 4.28126 
1 4.97599 
1 4.32957 
1 4.52502 
1 4.83017 
1 4.76793 
1 4.27951 
1 4.07931 
1 4.56557 
1 4.94398 
1 4.47763 
1 4.26005 
1 4.89996 
1 3.9874 
1 4.13181 
1 4.00929 
1 4.70567 
1 4.84552 
1 3.69182 
1 5.07612 
1 4.57218 
1 5.25887 
1 4.56869 
1 3.89485 
1 3.91968 
1 4.63829 
1 5.92117 
1 4.56327 
1 4.71284 
1 4.97119 
1 4.28354 
1 4.57155 
1 4.33807 
1 4.4788 
1 4.94179 
1 4.84146 
1 4.68113 
1 4.15888 
1 4.47857 
1 4.20536 
1 3.30453 
1 5.60705 
1 3.94973 
1 4.48625 
1 4.88671 
1 5.04784 
1 5.05833 
1 4.36743 
1 4.7154 
1 4.98694 
1 4.73753 
1 4.81194 
1 4.40289 
1 4.1062 
1 5.56227 
1 4.58167 
1 4.50709 
1 4.49013 
1 5.13351 
1 4.27675 
1 4.60561 
1 5.69085 
1 4.49163 
1 5.78085 
1 4.43231 
1 3.70829 
1 3.61123 
1 4.89123 
1 4.92878 
1 5.06511 
1 5.09656 
1 4.9973 
1 4.50026 
1 4.54734 
1 4.44508 
1 5.47988 
1 4.61751 
1 4.44539 
1 5.0351 
1 5.17183 
1 4.75345 
1 5.23042 
1 5.01142 
1 4.88686 
1 4.20249 
1 5.46361 
1 4.61099 
1 4.53108 
1 3.90928 
1 5.04726 
1 3.58068 
1 4.55498 
1 4.80886 
1 4.76428 
1 5.27793 
1 4.89178 
1 4.01618 
1 4.64141 
1 5.09683 
1 4.51045 
1 4.6717 
1 5.36775 
1 5.60251 
1 4.93327 
1 4.40621 
ITEM: TIMESTEP
55000
ITEM: NUMBER OF ENTRIES
200
ITEM: BOX BOUNDS pp pp pp
0 32.5385
0 32.5385
0 32.5385
ITEM: ENTRIES c_BTYPE[*] c_BOND[*] 
1 4.41579 
1 4.21667 
1 4.45239 
1 4.35468 
1 4.61891 
1 4.38835 
1 4.81619 
1 4.98369 
1 4.61864 
1 4.18404 
1 4.39113 
1 4.49184 
1 3.98073 
1 4.55666 
1 4.86023 
1 3.87068 
1 4.88149 
1 4.05237 
1 4.35502 
1 3.97927 
1 4.10726 
1 4.42705 
1 4.97966 
1 4.88645 
1 4.33655 
1 4.66355 
1 5.2901 
1 4.66439 
1 3.9555 
1 3.82015 
1 4.40356 
1 4.9311 
1 3.43202 
1 4.39319 
1 5.63063 
1 4.76582 
1 5.3899 
1 4.28235 
1 4.35761 
1 4.80746 
1 4.71669 
1 4.36771 
1 3.79497 
1 3.90931 
1 5.14737 
1 4.11937 
1 4.11512 
1 4.43033 
1 4.21923 
1 4.42411 
1 4.64546 
1 4.70218 
1 4.32923 
1 4.01644 
1 3.68044 
1 4.9245 
1 4.78164 
1 4.2549 
1 4.54793 
1 4.51943 
1 4.43882 
1 4.32583 
1 3.7157 
1 4.20208 
1 3.75581 
1 4.11811 
1 3.92927 
1 4.54751 
1 4.80956 
1 4.1716 
1 4.61056 
1 4.6796 
1 4.87755 
1 3.91935 
1 4.94516 
1 5.04403 
1 4.2676 
1 3.87511 
1 4.79912 
1 4.21996 
1 4.86274 
1 3.95631 
1 4.07706 
1 4.94999 
1 4.43473 
1 5.01319 
1 4.5266 
1 4.07599 
1 3.59994 
1 3.71476 
1 4.73531 
1 4.21686 
1 5.34661 
1 3.65519 
1 5.16079 
1 3.76541 
1 5.35651 
1 5.3054 
1 4.01305 
1 4.33324 
1 4.68449 
1 4.00146 
1 4.47577 
1 5.26183 
1 4.16462 
1 5.51108 
1 4.86857 
1 4.93684 
1 4.99443 
1 4.80525 
1 4.58327 
1 4.58142 
1 4.58589 
1 5.09449 
1 4.70797 
1 4.68461 
1 4.44715 
1 4.63076 
1 4.23941 
1 4.60281 
1 4.2218 
1 4.02802 
1 4.46928 
1 4.51069 
1 3.87033 
1 4.35507 
1 4.90629 
1 4.80938 
1 4.97327 
1 4.87442 
1 4.65386 
1 4.28386 
1 4.80212 
1 4.51179 
1 4.4524 
1 4.49337 
1 4.48271 
1 4.9754 
1 5.2878 
1 4.31354 
1 4.7708 
1 4.38866 
1 4.07707 
1 4.35 
1 5.07578 
1 5.00105 
1 4.85824 
1 3.88325 
1 5.3045 
1 3.99428 
1 4.65473 
1 4.44657 
1 4.90146 
1 5.11725 
1 5.73469 
1 3.96967 
1 4.61956 
1 4.28484 
1 4.3065 
1 4.47251 
1 4.29254 
1 4.01762 
1 4.36768 
1 4.1467 
1 4.80396 
1 4.86951 
1 4.3019 
1 5.1472 
1 4.45361 
1 4.30436 
1 5.4158 
1 5.22797 
1 3.94754 
1 4.26171 
1 3.87515 
1 4.03352 
1 3.4384 
1 3.98202 
1 4.73533 
1 4.46934 
1 4.44563 
1 3.70431 
1 4.52858 
1 4.08981 
1 4.64343 
1 4.72188 
1 4.31255 
1 5.31558 
1 3.92374 
1 4.8443 
1 4.94083 
1 4.76856 
1 4.03641 
1 3.24683 
1 5.34814 
1 5.13822 
1 3.60722 
1 4.41119 
1 3.62393 
1 4.51963 
ITEM: TIMESTEP
55500
ITEM: NUMBER OF ENTRIES
200
ITEM: BOX BOUNDS pp pp pp
0 32.5385
0 32.5385
0 32.5385
ITEM: ENTRIES c_BTYPE[*] c_BOND[*] 
1 4.32137 
1 4.28014 
1 4.58586 
1 4.87442 
1 4.64984 
1 4.28795 
1 4.29805 
1 4.80118 
1 4.49082 
1 4.39205 
1 4.70526 
1 4.35587 
1 5.10403 
1 4.59919 
1 4.99879 
1 4.97721 
1 3.63143 
1 4.84005 
1 3.82804 
1 4.62614 
1 4.65895 
1 4.75211 
1 4.27344 
1 4.85423 
1 4.55722 
1 4.35204 
1 4.38746 
1 4.92364 
1 3.95326 
1 4.95328 
1 4.88393 
1 4.77039 
1 4.67396 
1 4.55011 
1 4.61807 
1 3.4537 
1 4.96456 
1 4.5015 
1 4.58052 
1 5.27166 
1 4.94652 
1 4.58716 
1 3.95605 
1 4.5016 
1 4.76557 
1 4.75853 
1 4.79869 
1 4.97731 
1 4.48612 
1 3.87852 
1 4.53185 
1 5.26157 
1 4.39958 
1 3.64453 
1 4.11632 
1 5.46207 
1 3.99388 
1 4.27081 
1 5.3249 
1 4.38003 
1 4.67515 
1 3.9993 
1 5.27481 
1 4.09439 
1 4.61366 
1 3.99927 
1 4.88422 
1 4.6517 
1 5.07645 
1 4.79977 
1 4.50591 
1 4.80629 
1 4.74644 
1 4.25366 
1 4.64007 
1 4.44747 
1 5.02662 
1 4.09673 
1 4.37114 
1 4.83287 
1 4.13442 
1 4.65975 
1 4.87484 
1 4.55884 
1 5.01429 
1 5.03428 
1 4.20828 
1 4.786 
1 4.1564 
1 4.63451 
1 3.95646 
1 4.86938 
1 4.39154 
1 3.77441 
1 4.67381 
1 4.28404 
1 4.58832 
1 4.85455 
1 4.45615 
1 4.80008 
1 4.11052 
1 4.20872 
1 4.8533 
1 4.01039 
1 4.77294 
1 5.14948 
1 4.82499 
1 4.33417 
1 4.38683 
1 4.44145 
1 5.10745 
1 3.45819 
1 4.70904 
1 5.2452 
1 4.43432 
1 4.10247 
1 3.84142 
1 5.2966 
1 3.97424 
1 4.91203 
1 4.18945 
1 4.91258 
1 4.7593 
1 3.97977 
1 4.62988 
1 3.1229 
1 4.86754 
1 5.46084 
1 4.85194 
1 4.51882 
1 4.11516 
1 4.56712 
1 4.4474 
1 5.33102 
1 4.67324 
1 5.04502 
1 3.94462 
1 4.3302 
1 4.82842 
1 4.40634 
1 4.67669 
1 4.70649 
1 4.35011 
1 4.18683 
1 4.36664 
1 4.367 
1 4.36318 
1 4.30846 
1 5.12301 
1 4.87422 
1 4.46665 
1 4.35819 
1 4.87736 
1 4.27495 
1 3.99032 
1 4.74434 
1 4.73455 
1 4.74554 
1 4.43631 
1 5.09959 
1 4.72141 
1 4.59899 
1 4.31086 
1 4.3894 
1 5.56822 
1 4.91816 
1 5.34305 
1 4.62905 
1 4.28931 
1 4.58106 
1 4.39682 
1 4.32185 
1 4.11567 
1 4.83404 
1 4.83915 
1 3.76463 
1 4.99365 
1 5.43903 
1 4.55703 
1 5.17606 
1 4.67041 
1 4.29291 
1 4.28383 
1 4.54732 
1 4.33223 
1 4.10594 
1 4.15023 
1 4.46106 
1 5.15281 
1 4.5096 
1 4.42505 
1 4.03448 
1 4.79301 
1 4.86395 
1 4.4001 
1 4.71272 
1 4.62104 
1 4.89532 
1 5.46452 
1 4.96624 
ITEM: TIMESTEP
56000
ITEM: NUMBER OF ENTRIES
200
ITEM: BOX BOUNDS pp pp pp
0 32.5385
0 32.5385
0 32.5385
ITEM: ENTRIES c_BTYPE[*] c_BOND[*] 
1 4.62577 
1 3.66917 
1 4.49719 
1 3.77762 
1 3.9679 
1 4.68304 
1 5.61938 
1 4.70102 
1 4.40704 
1 3.68946 
1 5.2208 
1 4.69937 
1 4.34953 
1 3.79767 
1 4.4354 
1 5.26177 
1 4.71128 
1 4.78856 
1 4.26422 
1 4.44465 
1 4.27559 
1 3.92332 
1 4.31389 
1 4.83185 
1 5.01823 
1 4.43886 
1 3.8567 
1 4.21073 
1 4.76408 
1 5.11179 
1 4.59143 
1 4.93464 
1 4.61745 
1 4.71566 
1 4.94319 
1 4.71782 
1 3.62022 
1 3.82901 
1 4.64805 
1 4.05815 
1 4.89558 
1 3.67342 
1 4.32516 
1 5.00376 
1 5.23333 
1 3.46548 
1 4.11992 
1 6.24173 
1 4.38492 
1 4.19605 
1 4.04242 
1 5.2029 
1 4.42005 
1 5.2215 
1 4.63847 
1 4.74162 
1 4.4147 
1 5.12855 
1 4.89465 
1 3.84571 
1 4.62378 
1 4.55281 
1 4.07238 
1 4.47216 
1 4.37217 
1 4.25558 
1 4.95627 
1 4.43506 
1 5.33516 
1 3.84224 
1 4.41278 
1 4.58949 
1 3.73675 
1 4.59861 
1 4.28364 
1 4.14608 
1 4.42725 
1 4.47254 
1 5.36647 
1 5.13922 
1 4.9672 
1 4.10997 
1 3.8373 
1 3.74925 
1 4.30567 
1 4.73257 
1 4.72291 
1 4.50047 
1 5.14383 
1 4.57846 
1 5.78622 
1 4.43424 
1 4.89302 
1 4.26753 
1 4.57295 
1 3.66095 
1 5.39779 
1 3.7036 
1 4.32561 
1 4.29344 
1 4.64292 
1 4.68067 
1 4.37207 
1 4.66766 
1 3.62365 
1 4.26463 
1 3.62423 
1 4.40646 
1 3.91651 
1 5.20337 
1 3.73749 
1 4.49452 
1 3.74724 
1 4.45082 
1 4.47754 
1 3.89318 
1 4.89678 
1 4.77957 
1 3.8858 
1 4.42324 
1 4.44143 
1 5.20266 
1 3.99723 
1 4.2355 
1 5.12191 
1 3.71074 
1 4.20705 
1 4.7236 
1 4.07339 
1 4.097 
1 4.18939 
1 4.30221 
1 3.90387 
1 4.84747 
1 4.51382 
1 5.01337 
1 4.32836 
1 5.24939 
1 4.20678 
1 4.01971 
1 5.63682 
1 4.64449 
1 5.09022 
1 3.74086 
1 5.02653 
1 4.94183 
1 3.84865 
1 4.81942 
1 4.94304 
1 4.62395 
1 4.29443 
1 3.87061 
1 4.67068 
1 4.83622 
1 3.7834 
1 4.81768 
1 5.20989 
1 4.04169 
1 4.95053 
1 4.33245 
1 4.01843 
1 3.73369 
1 4.3068 
1 4.99895 
1 3.82956 
1 4.42021 
1 4.36877 
1 4.2966 
1 4.91091 
1 4.1344 
1 5.14885 
1 4.54859 
1 5.28857 
1 5.03389 
1 3.6736 
1 4.68462 
1 4.53703 
1 4.3418 
1 4.75123 
1 5.13963 
1 3.96007 
1 4.96375 
1 5.06073 
1 4.84144 
1 4.48939 
1 5.00383 
1 4.47405 
1 4.25739 
1 4.22759 
1 4.5871 
1 4.69241 
1 4.2292 
1 4.89581 
1 4.5177 
1 4.9902 
1 3.94237 
1 4.10086 
1 5.42273 
1 4.69741 
1 4.05502 
ITEM: TIMESTEP
56500
ITEM: NUMBER OF ENTRIES
200
ITEM: BOX BOUNDS pp pp pp
0 32.5385
0 32.5385
0 32.5385
ITEM: ENTRIES c_BTYPE[*] c_BOND[*] 
1 4.88885 
1 4.50735 
1 4.82975 
1 4.78806 
1 4.35888 
1 4.53485 
1 5.04098 
1 5.27838 
1 4.1541 
1 4.50237 
1 4.45456 
1 4.28097 
1 4.56001 
1 4.1702 
1 4.95526 
1 3.80839 
1 4.08652 
1 4.34613 
1 4.58975 
1 5.03003 
1 4.67218 
1 4.82406 
1 4.36747 
1 4.53684 
1 4.96324 
1 4.0414 
1 3.9374 
1 4.66811 
1 4.98802 
1 4.55353 
1 4.83861 
1 4.83101 
1 4.51699 
1 3.25082 
1 4.76491 
1 4.51547 
1 4.55787 
1 4.65955 
1 5.07954 
1 4.06005 
1 3.8905 
1 4.90238 
1 5.19164 
1 4.35937 
1 4.84454 
1 3.73787 
1 4.05802 
1 5.17435 
1 3.50868 
1 4.61247 
1 4.5545 
1 5.74295 
1 4.29135 
1 4.23423 
1 5.15836 
1 4.23039 
1 4.0186 
1 4.52634 
1 5.00654 
1 5.30668 
1 4.72087 
1 4.99693 
1 4.91429 
1 4.95204 
1 4.51647 
1 4.53831 
1 4.41903 
1 5.32145 
1 4.77442 
1 4.20631 
1 4.56556 
1 3.88839 
1 4.24 
1 4.9228 
1 4.12759 
1 4.1291 
1 4.86593 
1 4.5791 
1 4.84795 
1 4.34236 
1 4.31107 
1 4.80558 
1 3.70534 
1 3.9944 
1 4.41976 
1 4.11903 
1 4.63815 
1 4.45741 
1 4.88497 
1 4.99896 
1 5.15712 
1 4.34968 
1 4.87715 
1 5.00408 
1 3.96621 
1 4.82683 
1 4.47625 
1 4.51097 
1 4.23558 
1 3.8301 
1 4.4886 
1 4.79896 
1 4.77147 
1 4.31279 
1 4.42139 
1 4.98123 
1 4.73203 
1 4.00247 
1 4.64048 
1 3.98884 
1 4.53643 
1 5.53221 
1 4.3324 
1 4.82821 
1 4.76388 
1 4.96485 
1 4.8253 
1 4.39417 
1 4.17363 
1 5.07515 
1 4.49681 
1 4.27158 
1 4.23838 
1 4.41997 
1 4.4132 
1 4.7264 
1 5.07944 
1 4.8196 
1 3.82416 
1 4.10581 
1 4.39838 
1 3.80807 
1 4.00096 
1 3.76345 
1 4.33221 
1 4.72466 
1 4.08368 
1 4.75168 
1 3.80598 
1 5.03506 
1 3.75617 
1 5.00182 
1 4.28636 
1 4.82795 
1 4.77179 
1 3.88688 
1 4.39579 
1 4.25451 
1 4.05427 
1 5.61687 
1 4.73407 
1 4.41917 
1 4.42195 
1 4.56811 
1 4.26588 
1 4.75793 
1 4.49253 
1 4.97981 
1 4.07911 
1 3.66022 
1 4.8278 
1 4.98235 
1 4.57872 
1 4.877 
1 4.32679 
1 5.09467 
1 3.68922 
1 4.30798 
1 4.2294 
1 4.3317 
1 3.96458 
1 3.74579 
1 4.09236 
1 4.99744 
1 5.0822 
1 4.8742 
1 4.67532 
1 4.00378 
1 3.96023 
1 4.44593 
1 4.38753 
1 5.11336 
1 4.10532 
1 4.43534 
1 3.42445 