ITEM: TIMESTEP
50500
ITEM: NUMBER OF ENTRIES
200
ITEM: BOX BOUNDS pp pp pp
0 32.5475
0 32.5475
0 32.5475
ITEM: ENTRIES c_BTYPE[*] c_BOND[*] 
1 4.16698 
1 4.25228 
1 4.80925 
1 5.18905 
1 4.55701 
1 4.73988 
1 5.46023 
1 4.19168 
1 4.34713 
1 4.03159 
1 4.68039 
1 4.65315 
1 4.26279 
1 4.81781 
1 3.62099 
1 4.5142 
1 5.05213 
1 4.31056 
1 4.913 
1 4.515 
1 4.83377 
1 5.12175 
1 3.31287 
1 4.54739 
1 4.55403 
1 4.48582 
1 4.79197 
1 5.23138 
1 3.87488 
1 4.07082 
1 4.12153 
1 4.16975 
1 5.08149 
1 4.38884 
1 4.8903 
1 3.95455 
1 4.54792 
1 4.42212 
1 4.95456 
1 4.23394 
1 4.63249 
1 4.65738 
1 4.96318 
1 5.09234 
1 5.30167 
1 4.09179 
1 4.12985 
1 5.00139 
1 4.36229 
1 4.62891 
1 3.90606 
1 3.81837 
1 4.64724 
1 5.14973 
1 4.79688 
1 5.26888 
1 4.6721 
1 4.34295 
1 4.61519 
1 5.01448 
1 4.05564 
1 4.0287 
1 4.76296 
1 4.06805 
1 4.7592 
1 4.39283 
1 5.18803 
1 4.24261 
1 5.69057 
1 4.468 
1 4.98221 
1 4.10635 
1 3.64759 
1 4.2872 
1 5.31517 
1 4.73708 
1 4.26507 
1 4.93224 
1 4.50253 
1 5.03004 
1 4.8502 
1 5.03694 
1 3.93472 
1 5.16697 
1 5.241 
1 4.3273 
1 3.97971 
1 4.50866 
1 4.22854 
1 4.68812 
1 4.8602 
1 4.73601 
1 4.48164 
1 4.42242 
1 4.50098 
1 4.45958 
1 5.05315 
1 4.66401 
1 4.98642 
1 4.79757 
1 4.58428 
1 4.30847 
1 5.30077 
1 3.69321 
1 4.6448 
1 4.46055 
1 4.02795 
1 4.382 
1 4.49761 
1 5.29181 
1 4.74223 
1 4.35169 
1 4.39196 
1 4.26896 
1 4.46094 
1 4.29242 
1 3.87005 
1 4.78489 
1 4.48911 
1 4.51806 
1 4.67938 
1 5.23583 
1 4.17923 
1 4.28942 
1 4.62768 
1 4.72897 
1 4.56981 
1 4.83701 
1 4.9966 
1 4.26692 
1 4.24157 
1 4.11095 
1 4.32655 
1 4.33542 
1 5.17938 
1 5.58239 
1 4.52632 
1 4.7904 
1 4.88711 
1 4.64329 
1 3.05635 
1 4.82619 
1 4.46767 
1 4.94287 
1 5.16712 
1 3.87543 
1 4.89397 
1 4.34255 
1 4.82235 
1 3.80602 
1 4.34521 
1 4.84679 
1 4.01627 
1 4.2444 
1 4.18132 
1 4.79416 
1 3.47068 
1 4.55272 
1 4.72485 
1 4.11747 
1 3.93081 
1 3.70231 
1 4.10008 
1 3.66891 
1 4.90903 
1 4.69828 
1 5.38067 
1 4.43821 
1 4.23419 
1 3.79653 
1 4.06672 
1 3.72827 
1 3.71523 
1 4.07281 
1 5.43646 
1 4.52 
1 4.43789 
1 4.30388 
1 3.53359 
1 4.3876 
1 4.4685 
1 4.45417 
1 4.23639 
1 4.43783 
1 4.59884 
1 4.40509 
1 4.79687 
1 4.73808 
1 4.73599 
1 4.01704 
1 4.01106 
1 4.5246 
1 4.04946 
1 4.53729 
1 4.66554 
1 4.05415 
1 5.25714 
1 4.82599 
1 5.09324 
1 5.07223 
ITEM: TIMESTEP
51000
ITEM: NUMBER OF ENTRIES
200
ITEM: BOX BOUNDS pp pp pp
0 32.5475
0 32.5475
0 32.5475
ITEM: ENTRIES c_BTYPE[*] c_BOND[*] 
1 4.52523 
1 5.07036 
1 4.41581 
1 5.38474 
1 3.88085 
1 4.07532 
1 4.31679 
1 4.52907 
1 4.13073 
1 4.44878 
1 5.28615 
1 4.09851 
1 4.36884 
1 4.30831 
1 4.04313 
1 5.30785 
1 3.82456 
1 5.05406 
1 4.37243 
1 4.56585 
1 4.31097 
1 4.77411 
1 4.95819 
1 3.93112 
1 5.07981 
1 3.86393 
1 4.26886 
1 4.51178 
1 4.2847 
1 4.35402 
1 4.75106 
1 4.54935 
1 4.29454 
1 3.80276 
1 5.02253 
1 5.19723 
1 3.77341 
1 4.88335 
1 5.00629 
1 4.30378 
1 4.74899 
1 4.99812 
1 3.91171 
1 4.0898 
1 5.08215 
1 4.10415 
1 4.63679 
1 3.93491 
1 4.7195 
1 4.58844 
1 4.3729 
1 4.23388 
1 5.00275 
1 4.45201 
1 4.70909 
1 4.56616 
1 4.64041 
1 4.57317 
1 4.1134 
1 4.16816 
1 4.80734 
1 4.4522 
1 5.34354 
1 5.14023 
1 4.63449 
1 3.97861 
1 5.42723 
1 4.71485 
1 4.55563 
1 4.64242 
1 4.91191 
1 4.15453 
1 5.25854 
1 4.39522 
1 4.09751 
1 4.82985 
1 4.1774 
1 4.30223 
1 4.40415 
1 4.70529 
1 4.72448 
1 4.68031 
1 4.10634 
1 4.65535 
1 4.7496 
1 4.47448 
1 3.81771 
1 4.14908 
1 4.66946 
1 4.52836 
1 4.81229 
1 3.76446 
1 4.29655 
1 4.02137 
1 4.01745 
1 4.24784 
1 3.94285 
1 4.41405 
1 4.54579 
1 5.50917 
1 3.93587 
1 4.43316 
1 4.00045 
1 4.36393 
1 4.36603 
1 4.83021 
1 4.73657 
1 4.1874 
1 4.74387 
1 4.11037 
1 4.33025 
1 3.95449 
1 4.09567 
1 4.59152 
1 4.21741 
1 4.83183 
1 4.18838 
1 4.45083 
1 4.2364 
1 3.83028 
1 4.56437 
1 4.42965 
1 4.93574 
1 3.88919 
1 4.62407 
1 4.25251 
1 5.04551 
1 4.10791 
1 4.67288 
1 4.76009 
1 4.26296 
1 4.41624 
1 4.67374 
1 4.3502 
1 4.7197 
1 5.01966 
1 4.63792 
1 5.49748 
1 4.53316 
1 4.84789 
1 4.15962 
1 4.98612 
1 4.69556 
1 3.99006 
1 4.36351 
1 4.29299 
1 4.01005 
1 5.04193 
1 4.58753 
1 5.4982 
1 3.22999 
1 4.27618 
1 4.58692 
1 4.424 
1 3.84725 
1 4.53046 
1 4.72434 
1 4.43013 
1 4.66398 
1 3.88301 
1 5.15575 
1 4.64636 
1 4.17658 
1 4.92286 
1 3.90399 
1 4.84679 
1 3.86104 
1 4.32768 
1 4.51524 
1 4.75377 
1 4.64858 
1 4.59226 
1 4.57215 
1 4.70892 
1 4.85608 
1 5.85355 
1 4.43041 
1 4.42509 
1 4.11837 
1 4.50168 
1 4.96424 
1 4.56954 
1 4.69588 
1 5.7296 
1 3.777 
1 4.00451 
1 4.57152 
1 4.40746 
1 4.44334 
1 4.33335 
1 5.39073 
1 3.56489 
1 5.35689 
1 4.41587 
1 4.38772 
1 4.41413 
1 4.70007 
1 4.22466 
1 4.61396 
1 4.37248 
ITEM: TIMESTEP
51500
ITEM: NUMBER OF ENTRIES
200
ITEM: BOX BOUNDS pp pp pp
0 32.5475
0 32.5475
0 32.5475
ITEM: ENTRIES c_BTYPE[*] c_BOND[*] 
1 4.71608 
1 4.65133 
1 3.8435 
1 4.50382 
1 4.4269 
1 4.29127 
1 4.74082 
1 4.38801 
1 3.84399 
1 5.23011 
1 4.31854 
1 4.82283 
1 4.33404 
1 4.31649 
1 2.94836 
1 4.64798 
1 4.81186 
1 4.59746 
1 3.78521 
1 4.5701 
1 4.63741 
1 3.85132 
1 4.64655 
1 4.65131 
1 4.72407 
1 4.45318 
1 4.47433 
1 4.83517 
1 4.6778 
1 5.14539 
1 4.61547 
1 4.50764 
1 4.83623 
1 4.57366 
1 4.74253 
1 4.70785 
1 5.36684 
1 4.55427 
1 4.87644 
1 4.27844 
1 4.66014 
1 4.87457 
1 3.74726 
1 5.21571 
1 4.67091 
1 5.3679 
1 4.24276 
1 5.90462 
1 4.86533 
1 5.43501 
1 4.74938 
1 4.71296 
1 4.61132 
1 4.83945 
1 4.71481 
1 4.5016 
1 4.73717 
1 4.51375 
1 4.97103 
1 4.63348 
1 4.76978 
1 3.85186 
1 4.30661 
1 5.3543 
1 4.60241 
1 4.60907 
1 4.55882 
1 4.07576 
1 4.45555 
1 3.83671 
1 4.73336 
1 3.8264 
1 4.54871 
1 4.00834 
1 4.52836 
1 3.87814 
1 4.36666 
1 5.23547 
1 4.03219 
1 4.82585 
1 4.65689 
1 4.4851 
1 4.12897 
1 4.52579 
1 5.48477 
1 4.65918 
1 3.83813 
1 4.47969 
1 4.42964 
1 3.85893 
1 4.63493 
1 4.04232 
1 4.16972 
1 4.34527 
1 4.01619 
1 3.8031 
1 4.32363 
1 4.70254 
1 4.03218 
1 4.3649 
1 5.63564 
1 3.42766 
1 3.89791 
1 4.98479 
1 3.85531 
1 5.15498 
1 4.58903 
1 4.52034 
1 4.14479 
1 3.92027 
1 4.99022 
1 4.54461 
1 4.22701 
1 4.77806 
1 4.31722 
1 4.45893 
1 4.65054 
1 5.05352 
1 4.97639 
1 3.91869 
1 3.95046 
1 4.89259 
1 4.80069 
1 4.60217 
1 4.98907 
1 4.06712 
1 4.66509 
1 4.49567 
1 4.2602 
1 4.75691 
1 5.16784 
1 3.72264 
1 4.11457 
1 5.10657 
1 3.89246 
1 4.80633 
1 4.26684 
1 5.10493 
1 3.86002 
1 4.7351 
1 4.47767 
1 3.95027 
1 4.17899 
1 4.23232 
1 5.0665 
1 4.39391 
1 4.68198 
1 4.18112 
1 4.97137 
1 5.03691 
1 4.99408 
1 4.33924 
1 5.09906 
1 4.39246 
1 4.61712 
1 5.01281 
1 4.20449 
1 4.35995 
1 4.0004 
1 4.94059 
1 4.18201 
1 4.20817 
1 4.78059 
1 5.00816 
1 4.92048 
1 4.38387 
1 4.52594 
1 4.07414 
1 4.42743 
1 4.64374 
1 4.51428 
1 3.92519 
1 3.66057 
1 4.51147 
1 3.6882 
1 4.38672 
1 4.47065 
1 4.59301 
1 4.70237 
1 5.06906 
1 4.8934 
1 4.50673 
1 4.32046 
1 4.46408 
1 4.7697 
1 4.20671 
1 4.52738 
1 4.92172 
1 3.97894 
1 4.90074 
1 4.13781 
1 4.2793 
1 4.39252 
1 3.90205 
1 4.68592 
1 4.50899 
1 3.81805 
1 4.45512 
1 4.33623 
1 4.30873 
ITEM: TIMESTEP
52000
ITEM: NUMBER OF ENTRIES
200
ITEM: BOX BOUNDS pp pp pp
0 32.5475
0 32.5475
0 32.5475
ITEM: ENTRIES c_BTYPE[*] c_BOND[*] 
1 5.00684 
1 3.91069 
1 3.31093 
1 3.52888 
1 4.81835 
1 4.47846 
1 4.52994 
1 4.66837 
1 4.65552 
1 5.33987 
1 4.00336 
1 5.69757 
1 4.43253 
1 4.30945 
1 4.92754 
1 4.56311 
1 4.80958 
1 4.05199 
1 3.68755 
1 4.03099 
1 4.91245 
1 3.87151 
1 5.5553 
1 4.2989 
1 4.77554 
1 4.66115 
1 4.60045 
1 4.2653 
1 4.64136 
1 4.099 
1 4.7049 
1 5.25001 
1 4.78609 
1 4.75122 
1 3.4389 
1 4.33274 
1 4.23311 
1 4.14653 
1 4.37865 
1 5.2089 
1 4.53745 
1 4.8232 
1 4.31575 
1 5.05756 
1 4.7731 
1 4.50965 
1 4.8455 
1 4.10072 
1 4.77091 
1 4.55103 
1 5.57092 
1 4.41338 
1 4.47547 
1 5.02412 
1 4.60538 
1 4.48459 
1 4.34882 
1 4.78908 
1 4.69164 
1 4.04044 
1 4.65412 
1 4.24535 
1 4.32619 
1 3.97764 
1 4.8607 
1 4.81793 
1 3.3366 
1 4.29342 
1 4.65172 
1 4.50956 
1 4.46201 
1 3.57234 
1 4.01185 
1 4.87229 
1 4.9221 
1 4.7756 
1 3.74991 
1 4.85153 
1 4.74387 
1 4.51669 
1 3.66999 
1 4.16352 
1 4.28257 
1 4.14078 
1 4.69066 
1 4.22616 
1 4.06362 
1 4.49901 
1 4.11027 
1 4.71861 
1 4.64952 
1 4.4561 
1 4.74815 
1 5.07312 
1 4.96697 
1 4.50737 
1 4.86305 
1 4.94945 
1 4.75136 
1 3.95034 
1 4.5453 
1 3.14628 
1 4.63135 
1 4.90203 
1 5.22108 
1 3.78937 
1 5.26168 
1 4.74962 
1 4.59003 
1 4.66167 
1 4.55959 
1 4.41635 
1 4.6177 
1 4.20596 
1 4.65921 
1 3.73555 
1 3.68455 
1 5.02359 
1 4.43382 
1 4.07193 
1 5.054 
1 3.74221 
1 4.20743 
1 4.26052 
1 4.42675 
1 4.4619 
1 4.84986 
1 4.55581 
1 3.99585 
1 4.43853 
1 4.9357 
1 4.65704 
1 5.74297 
1 4.74052 
1 4.48936 
1 4.15951 
1 4.82676 
1 4.6888 
1 4.61717 
1 4.92678 
1 4.59875 
1 4.94523 
1 3.91653 
1 4.84295 
1 4.65933 
1 4.68797 
1 5.35089 
1 4.53586 
1 4.08722 
1 3.72095 
1 4.89194 
1 4.43325 
1 4.92982 
1 4.26731 
1 4.47969 
1 5.03646 
1 4.88383 
1 5.57176 
1 4.25005 
1 4.81122 
1 4.19265 
1 4.27251 
1 4.11323 
1 4.19251 
1 4.99933 
1 4.86722 
1 4.6823 
1 4.47805 
1 4.5401 
1 3.78518 
1 4.78792 
1 4.07781 
1 5.12688 
1 4.2502 
1 5.02162 
1 4.68459 
1 4.25831 
1 4.51521 
1 4.84758 
1 3.98647 
1 4.48246 
1 4.85859 
1 4.17424 
1 5.07254 
1 4.15182 
1 4.06088 
1 4.62157 
1 3.83422 
1 5.62157 
1 4.97288 
1 4.18973 
1 4.81341 
1 4.5651 
1 4.72176 
1 5.01424 
1 4.00134 
1 4.93834 
1 4.97632 
1 4.86398 
1 4.12869 
ITEM: TIMESTEP
52500
ITEM: NUMBER OF ENTRIES
200
ITEM: BOX BOUNDS pp pp pp
0 32.5475
0 32.5475
0 32.5475
ITEM: ENTRIES c_BTYPE[*] c_BOND[*] 
1 4.44873 
1 3.89606 
1 4.6682 
1 4.38045 
1 4.06719 
1 4.57423 
1 4.28988 
1 4.81854 
1 5.03515 
1 4.69073 
1 4.44414 
1 4.95885 
1 5.51888 
1 3.87869 
1 4.45705 
1 4.40589 
1 4.39952 
1 4.15872 
1 4.51562 
1 4.50976 
1 3.56812 
1 4.58193 
1 4.19306 
1 5.2731 
1 5.24925 
1 4.79788 
1 4.82104 
1 4.87895 
1 5.94141 
1 4.29448 
1 5.2751 
1 3.7873 
1 4.32692 
1 3.77155 
1 4.0528 
1 4.37948 
1 4.39921 
1 3.9509 
1 4.47725 
1 5.15231 
1 5.0532 
1 4.59387 
1 5.54135 
1 4.29535 
1 3.88977 
1 3.719 
1 4.40093 
1 5.21181 
1 4.94888 
1 3.67833 
1 4.35442 
1 4.1266 
1 4.5608 
1 5.03466 
1 4.69123 
1 4.58734 
1 4.71089 
1 4.93784 
1 4.60048 
1 4.74491 
1 4.72603 
1 4.02299 
1 5.60428 
1 4.17137 
1 4.82032 
1 5.6363 
1 5.14131 
1 4.21229 
1 4.11658 
1 4.51608 
1 3.96418 
1 4.925 
1 4.40301 
1 4.77357 
1 4.84436 
1 5.15675 
1 4.68015 
1 4.96886 
1 3.61872 
1 4.24852 
1 4.78922 
1 4.30847 
1 4.55172 
1 4.69187 
1 3.66008 
1 5.09863 
1 5.80964 
1 4.91379 
1 4.96625 
1 4.80838 
1 4.51939 
1 4.03452 
1 4.68424 
1 4.70208 
1 4.37356 
1 4.32521 
1 4.88981 
1 5.38042 
1 4.23307 
1 5.10056 
1 3.98438 
1 4.04883 
1 5.14713 
1 4.74953 
1 4.94917 
1 4.86915 
1 4.17145 
1 4.44466 
1 5.08511 
1 4.07676 
1 4.8853 
1 4.06539 
1 4.18117 
1 5.11394 
1 3.62129 
1 4.69141 
1 4.7125 
1 4.07223 
1 4.28281 
1 4.1046 
1 4.54311 
1 3.76905 
1 5.06672 
1 4.66518 
1 3.84702 
1 4.0266 
1 4.58951 
1 4.18761 
1 4.57473 
1 4.67448 
1 5.00959 
1 4.55 
1 4.41228 
1 4.49964 
1 4.76501 
1 4.34178 
1 4.9421 
1 4.09419 
1 3.74129 
1 4.91093 
1 5.54723 
1 4.53079 
1 4.61362 
1 3.59866 
1 4.57826 
1 4.32507 
1 4.25873 
1 4.6585 
1 3.85396 
1 4.74006 
1 5.03139 
1 4.85932 
1 4.05226 
1 4.64885 
1 4.38371 
1 4.66042 
1 4.60314 
1 4.54373 
1 5.29942 
1 4.20023 
1 4.5041 
1 4.41508 
1 4.27034 
1 4.05653 
1 4.66575 
1 3.69225 
1 4.3734 
1 5.11982 
1 4.46185 
1 4.77133 
1 4.8664 
1 4.98433 
1 4.46207 
1 4.21832 
1 4.67656 
1 3.75506 
1 4.74762 
1 4.16929 
1 5.23654 
1 4.26162 
1 4.99419 
1 4.73973 
1 4.51437 
1 4.14241 
1 4.4583 
1 4.15774 
1 4.77268 
1 4.75211 
1 4.33385 
1 3.75899 
1 4.64165 
1 4.93733 
1 4.14464 
1 4.1842 
1 3.6914 
1 4.91672 
1 3.82073 
1 4.32133 
1 5.04821 
1 4.70884 
ITEM: TIMESTEP
53000
ITEM: NUMBER OF ENTRIES
200
ITEM: BOX BOUNDS pp pp pp
0 32.5475
0 32.5475
0 32.5475
ITEM: ENTRIES c_BTYPE[*] c_BOND[*] 
1 4.55561 
1 4.99428 
1 4.10551 
1 3.84789 
1 5.04859 
1 3.86413 
1 4.36403 
1 5.3349 
1 5.05612 
1 4.68438 
1 4.81863 
1 4.18612 
1 4.76551 
1 5.02304 
1 4.62319 
1 4.14194 
1 4.45217 
1 4.29811 
1 4.83964 
1 4.51985 
1 4.40121 
1 4.50671 
1 4.10316 
1 4.65529 
1 4.92656 
1 4.64634 
1 4.80726 
1 4.35647 
1 4.78408 
1 4.59215 
1 5.08761 
1 3.87276 
1 4.93955 
1 5.59094 
1 3.75026 
1 4.32551 
1 5.00814 
1 5.05603 
1 4.18957 
1 5.3451 
1 5.0928 
1 4.03353 
1 4.79337 
1 4.68669 
1 4.22524 
1 4.14407 
1 3.94443 
1 4.86579 
1 4.1788 
1 4.55269 
1 4.23424 
1 4.27379 
1 4.33393 
1 5.20945 
1 4.23957 
1 4.37477 
1 4.59984 
1 4.77043 
1 4.99465 
1 4.53827 
1 4.71294 
1 5.20631 
1 4.54716 
1 4.06653 
1 5.23995 
1 4.4859 
1 4.58575 
1 4.48285 
1 4.58308 
1 4.44414 
1 5.48139 
1 4.23958 
1 4.69814 
1 4.1111 
1 4.12046 
1 4.41569 
1 4.39009 
1 5.60138 
1 4.65733 
1 5.09134 
1 4.81614 
1 4.03446 
1 4.17887 
1 4.38279 
1 4.46426 
1 4.74723 
1 4.7809 
1 3.96896 
1 4.54683 
1 4.30724 
1 4.17912 
1 4.54389 
1 3.94198 
1 4.56396 
1 4.77706 
1 4.57306 
1 4.39271 
1 4.70118 
1 5.16823 
1 4.56525 
1 5.32613 
1 4.12282 
1 4.51267 
1 3.99071 
1 4.50922 
1 3.98584 
1 4.15899 
1 4.65063 
1 3.78997 
1 4.60257 
1 4.63812 
1 5.21295 
1 4.19511 
1 4.01655 
1 4.31542 
1 4.49125 
1 4.96301 
1 3.83784 
1 3.96403 
1 4.29542 
1 4.57808 
1 4.29438 
1 5.09518 
1 4.03189 
1 3.98982 
1 3.58257 
1 4.72491 
1 3.69581 
1 4.22836 
1 3.78271 
1 4.70881 
1 4.85521 
1 4.35738 
1 4.44553 
1 5.25819 
1 4.24357 
1 5.09901 
1 4.07413 
1 4.44898 
1 4.36264 
1 5.28113 
1 4.82189 
1 3.94218 
1 5.31487 
1 3.64641 
1 4.08934 
1 4.17514 
1 4.15291 
1 4.73498 
1 4.26426 
1 4.8612 
1 4.51891 
1 4.07674 
1 4.58321 
1 4.48052 
1 4.86509 
1 4.48782 
1 4.15409 
1 4.56202 
1 4.4062 
1 5.13095 
1 4.1911 
1 5.03866 
1 4.63763 
1 4.18243 
1 4.09463 
1 3.58442 
1 4.23716 
1 4.80531 
1 4.98488 
1 5.05538 
1 4.37863 
1 3.81258 
1 5.02344 
1 4.99188 
1 5.35981 
1 4.1471 
1 4.67105 
1 4.77683 
1 4.91636 
1 4.91707 
1 4.7899 
1 5.16472 
1 3.98796 
1 4.85947 
1 4.91982 
1 5.01625 
1 4.07593 
1 4.44663 
1 4.58821 
1 5.32723 
1 4.16473 
1 3.62136 
1 4.64429 
1 4.3779 
1 4.45226 
1 4.75682 
1 4.69842 
1 5.41391 
1 4.38491 
ITEM: TIMESTEP
53500
ITEM: NUMBER OF ENTRIES
200
ITEM: BOX BOUNDS pp pp pp
0 32.5475
0 32.5475
0 32.5475
ITEM: ENTRIES c_BTYPE[*] c_BOND[*] 
1 4.2017 
1 4.21515 
1 5.08281 
1 5.53284 
1 4.47952 
1 4.15163 
1 4.70053 
1 4.58034 
1 5.6425 
1 3.8213 
1 4.08031 
1 3.14227 
1 4.12942 
1 5.00143 
1 5.33085 
1 5.80027 
1 4.49345 
1 5.48322 
1 4.74015 
1 3.64613 
1 4.96366 
1 4.2546 
1 3.53851 
1 4.57145 
1 3.59403 
1 4.42908 
1 4.34096 
1 3.19512 
1 4.29641 
1 4.72786 
1 4.85127 
1 4.67295 
1 3.73092 
1 5.26761 
1 4.31244 
1 4.22567 
1 4.83753 
1 3.77715 
1 4.9979 
1 4.15235 
1 4.78605 
1 4.84849 
1 4.2319 
1 4.80417 
1 4.56835 
1 4.44187 
1 4.41125 
1 4.86094 
1 4.15554 
1 4.64588 
1 4.84652 
1 4.03612 
1 4.31344 
1 4.89068 
1 4.26787 
1 4.57336 
1 4.60535 
1 4.93249 
1 4.64826 
1 5.12994 
1 4.64934 
1 3.81399 
1 4.37514 
1 4.15181 
1 4.83048 
1 4.11378 
1 4.46053 
1 4.34306 
1 4.85222 
1 4.3617 
1 4.88892 
1 4.71667 
1 4.66437 
1 4.94011 
1 4.30202 
1 4.52256 
1 4.68497 
1 3.52458 
1 5.16531 
1 4.69009 
1 4.19484 
1 4.99564 
1 4.91469 
1 5.17922 
1 4.65671 
1 5.53605 
1 4.25268 
1 4.99845 
1 4.15731 
1 4.97297 
1 4.36705 
1 4.89882 
1 4.62346 
1 4.78351 
1 4.88249 
1 4.06674 
1 3.69016 
1 4.45817 
1 4.03385 
1 5.01104 
1 4.14087 
1 4.34923 
1 4.38291 
1 5.24849 
1 4.58048 
1 4.50221 
1 4.19763 
1 4.50781 
1 4.70633 
1 5.23597 
1 4.37847 
1 5.05371 
1 4.21084 
1 4.52057 
1 4.08978 
1 5.4407 
1 4.61773 
1 4.49329 
1 5.10602 
1 5.10844 
1 4.49656 
1 4.50717 
1 4.72894 
1 4.67161 
1 4.36193 
1 4.77209 
1 3.98556 
1 4.53274 
1 3.93662 
1 4.45442 
1 3.84603 
1 4.50053 
1 4.11977 
1 5.2576 
1 4.98185 
1 4.14668 
1 4.42972 
1 5.36211 
1 4.72575 
1 4.40012 
1 4.93999 
1 3.99393 
1 4.76504 
1 4.31079 
1 4.31835 
1 3.94628 
1 5.88325 
1 4.63781 
1 4.20068 
1 5.49176 
1 4.05981 
1 4.93087 
1 3.8739 
1 4.08927 
1 4.79593 
1 4.75581 
1 4.34723 
1 4.26513 
1 4.76708 
1 3.71149 
1 4.82141 
1 4.91526 
1 4.86411 
1 4.55558 
1 4.78079 
1 4.35066 
1 4.87824 
1 4.74305 
1 3.61889 
1 4.78578 
1 4.6406 
1 4.15959 
1 3.53527 
1 4.47708 
1 3.92474 
1 4.54133 
1 4.75668 
1 5.38261 
1 4.26628 
1 4.81357 
1 4.65471 
1 4.26549 
1 5.03268 
1 3.7172 
1 3.79518 
1 3.973 
1 4.62963 
1 4.98478 
1 4.46607 
1 4.21353 
1 4.09213 
1 3.97234 
1 4.56178 
1 5.02248 
1 5.11781 
1 4.29727 
1 4.64522 
1 4.97929 
1 3.84996 
1 4.58907 
ITEM: TIMESTEP
54000
ITEM: NUMBER OF ENTRIES
200
ITEM: BOX BOUNDS pp pp pp
0 32.5475
0 32.5475
0 32.5475
ITEM: ENTRIES c_BTYPE[*] c_BOND[*] 
1 4.25478 
1 3.76639 
1 4.05949 
1 3.79726 
1 4.08207 
1 5.16957 
1 4.73691 
1 3.9831 
1 4.86806 
1 4.37549 
1 4.24506 
1 5.04316 
1 3.55037 
1 3.90327 
1 4.59404 
1 4.67508 
1 3.99642 
1 4.0164 
1 4.78041 
1 4.88937 
1 4.73152 
1 4.68299 
1 5.77366 
1 3.9756 
1 4.72535 
1 5.11162 
1 4.31793 
1 4.94777 
1 4.08322 
1 4.28847 
1 3.93329 
1 4.23369 
1 4.47311 
1 5.03822 
1 4.81382 
1 4.8751 
1 4.93105 
1 4.43535 
1 5.36841 
1 4.55346 
1 4.08788 
1 4.10246 
1 4.25024 
1 4.39466 
1 4.36636 
1 4.42704 
1 4.81433 
1 4.27473 
1 5.22724 
1 4.99042 
1 4.36962 
1 5.15341 
1 4.51298 
1 4.9929 
1 4.27142 
1 4.74524 
1 4.33092 
1 5.15204 
1 4.27994 
1 4.24007 
1 5.08883 
1 5.08314 
1 4.13002 
1 5.53238 
1 3.76166 
1 4.28151 
1 3.55946 
1 3.95297 
1 4.5955 
1 3.92325 
1 5.41577 
1 4.70248 
1 3.89193 
1 4.49025 
1 3.95459 
1 4.42258 
1 4.65943 
1 5.01385 
1 3.76791 
1 4.35144 
1 4.32659 
1 4.05056 
1 4.10069 
1 3.87315 
1 3.90106 
1 4.99935 
1 4.52857 
1 5.39425 
1 4.11439 
1 4.71373 
1 4.16779 
1 4.85504 
1 4.72877 
1 3.84454 
1 5.17904 
1 4.32586 
1 4.40514 
1 4.79457 
1 4.1095 
1 4.75035 
1 4.49353 
1 4.74155 
1 3.99671 
1 4.86515 
1 3.70158 
1 4.19754 
1 3.71838 
1 4.63669 
1 5.30135 
1 5.17732 
1 5.05955 
1 4.53963 
1 5.78151 
1 4.77125 
1 4.5304 
1 4.80549 
1 4.97954 
1 4.71644 
1 4.41615 
1 4.49284 
1 4.26108 
1 4.65948 
1 4.18745 
1 4.59944 
1 4.68878 
1 4.03301 
1 4.25854 
1 4.14259 
1 4.75091 
1 4.54824 
1 4.25294 
1 5.51473 
1 4.25014 
1 4.77455 
1 5.22341 
1 4.53088 
1 4.96158 
1 4.52084 
1 4.6462 
1 4.07161 
1 4.39532 
1 4.61093 
1 4.2173 
1 5.55317 
1 4.068 
1 4.96829 
1 4.22237 
1 4.85104 
1 4.14888 
1 4.68684 
1 5.10819 
1 4.73801 
1 4.12201 
1 4.5435 
1 3.70839 
1 3.52961 
1 5.15699 
1 5.27078 
1 4.57949 
1 4.27947 
1 4.61352 
1 4.72266 
1 3.53314 
1 4.65632 
1 3.71766 
1 4.71587 
1 4.86405 
1 4.7712 
1 3.5242 
1 4.65434 
1 4.67526 
1 5.06231 
1 4.26969 
1 3.95727 
1 4.23005 
1 4.36796 
1 4.512 
1 4.24575 
1 5.05988 
1 4.55141 
1 4.7577 
1 4.15553 
1 4.04015 
1 4.43028 
1 5.08745 
1 4.50424 
1 4.99887 
1 4.82053 
1 4.87051 
1 4.48185 
1 4.67895 
1 4.66477 
1 4.26379 
1 4.56818 
1 4.30217 
1 3.81091 
1 4.63062 
1 5.44751 
1 5.36064 
1 4.60113 
ITEM: TIMESTEP
54500
ITEM: NUMBER OF ENTRIES
200
ITEM: BOX BOUNDS pp pp pp
0 32.5475
0 32.5475
0 32.5475
ITEM: ENTRIES c_BTYPE[*] c_BOND[*] 
1 4.17141 
1 3.80391 
1 4.0826 
1 4.24684 
1 3.87667 
1 4.6298 
1 4.37133 
1 4.60299 
1 5.31502 
1 4.4479 
1 5.3034 
1 4.21994 
1 4.70438 
1 5.15831 
1 4.13491 
1 4.79127 
1 4.73572 
1 4.84873 
1 4.17331 
1 4.34733 
1 5.04075 
1 4.47718 
1 5.02883 
1 3.61824 
1 4.44453 
1 4.16093 
1 4.43519 
1 3.72216 
1 4.17565 
1 3.86023 
1 4.14066 
1 4.57164 
1 4.54315 
1 3.80202 
1 5.04408 
1 4.75729 
1 5.14701 
1 4.61192 
1 4.48921 
1 3.84319 
1 5.17396 
1 4.50053 
1 5.68675 
1 4.80294 
1 4.91676 
1 4.4232 
1 4.74647 
1 4.3535 
1 5.39819 
1 3.63758 
1 5.12829 
1 4.99792 
1 4.32048 
1 4.48683 
1 4.83715 
1 3.76851 
1 4.26072 
1 4.13034 
1 4.29436 
1 3.95151 
1 5.29492 
1 4.48559 
1 3.94977 
1 5.43771 
1 4.55403 
1 3.81736 
1 4.64169 
1 4.83515 
1 4.01439 
1 4.56848 
1 4.93188 
1 4.96462 
1 3.48924 
1 4.46242 
1 4.8455 
1 4.26102 
1 4.24341 
1 4.28791 
1 3.75477 
1 5.30415 
1 4.74394 
1 4.52156 
1 4.87782 
1 4.92335 
1 5.01643 
1 4.08776 
1 4.52936 
1 4.26881 
1 4.9566 
1 4.73479 
1 4.53418 
1 5.25802 
1 4.84626 
1 4.36288 
1 3.75811 
1 4.40043 
1 4.09798 
1 3.44148 
1 4.51998 
1 4.9208 
1 4.3399 
1 4.84871 
1 4.97128 
1 4.79516 
1 3.83652 
1 4.27305 
1 4.93279 
1 4.67371 
1 4.65414 
1 4.84458 
1 4.31073 
1 4.73836 
1 4.87911 
1 5.1902 
1 4.72721 
1 4.99787 
1 4.93971 
1 4.7656 
1 4.38042 
1 4.48318 
1 4.56362 
1 4.61575 
1 4.70509 
1 5.14035 
1 4.63119 
1 5.43676 
1 5.39936 
1 5.02583 
1 4.0196 
1 4.12703 
1 4.46463 
1 4.36204 
1 4.75865 
1 4.79797 
1 4.50719 
1 5.2597 
1 4.87369 
1 5.15331 
1 4.13669 
1 4.10157 
1 4.03967 
1 4.1725 
1 4.47593 
1 4.22566 
1 4.1856 
1 4.0053 
1 3.86966 
1 4.12698 
1 4.20884 
1 4.41214 
1 4.89525 
1 4.36474 
1 5.53477 
1 4.91492 
1 4.40026 
1 4.42578 
1 4.34552 
1 4.68143 
1 4.90511 
1 4.65129 
1 3.54732 
1 4.21842 
1 5.16887 
1 4.84349 
1 4.35927 
1 4.67039 
1 4.11091 
1 3.54101 
1 4.96824 
1 3.93071 
1 4.47426 
1 4.2959 
1 4.47961 
1 3.89807 
1 4.45406 
1 4.80541 
1 4.28136 
1 3.58507 
1 4.06005 
1 4.0534 
1 4.27228 
1 3.75867 
1 5.04829 
1 3.71654 
1 4.6216 
1 4.98609 
1 4.80629 
1 4.01067 
1 4.41027 
1 3.83169 
1 4.67296 
1 4.24546 
1 4.57902 
1 4.59099 
1 4.10214 
1 3.83329 
1 4.6354 
1 5.12888 
1 4.43152 
1 5.06093 
ITEM: TIMESTEP
55000
ITEM: NUMBER OF ENTRIES
200
ITEM: BOX BOUNDS pp pp pp
0 32.5475
0 32.5475
0 32.5475
ITEM: ENTRIES c_BTYPE[*] c_BOND[*] 
1 3.97535 
1 3.46872 
1 4.86191 
1 4.86124 
1 4.61283 
1 4.56283 
1 4.96334 
1 5.17747 
1 4.07656 
1 4.14424 
1 4.88188 
1 4.17544 
1 4.1475 
1 4.44075 
1 5.04544 
1 4.93445 
1 4.09914 
1 4.55964 
1 4.30034 
1 4.96573 
1 3.51349 
1 4.2175 
1 4.10483 
1 4.69611 
1 5.1407 
1 4.21785 
1 5.114 
1 4.42561 
1 4.90267 
1 4.49865 
1 3.78089 
1 4.25919 
1 4.06765 
1 3.94914 
1 4.09898 
1 4.39033 
1 4.45779 
1 4.80988 
1 5.41213 
1 4.33726 
1 5.5572 
1 4.2047 
1 3.79647 
1 5.07931 
1 4.47567 
1 4.89331 
1 5.91063 
1 5.00842 
1 4.28768 
1 3.95347 
1 5.15739 
1 4.89488 
1 4.51189 
1 3.99771 
1 4.4075 
1 5.11391 
1 4.05092 
1 5.20016 
1 4.76372 
1 3.96453 
1 4.62563 
1 5.0007 
1 5.11408 
1 4.19596 
1 4.09904 
1 4.99826 
1 4.50644 
1 5.25658 
1 5.22566 
1 4.90052 
1 4.00916 
1 4.90252 
1 4.45968 
1 4.50304 
1 4.6806 
1 4.29238 
1 4.3012 
1 4.16797 
1 4.67768 
1 3.7394 
1 4.01433 
1 5.00635 
1 4.43662 
1 4.11466 
1 4.47017 
1 4.86653 
1 4.38919 
1 4.10799 
1 4.49399 
1 4.58781 
1 4.91566 
1 4.53383 
1 4.10588 
1 5.19675 
1 4.7073 
1 4.69748 
1 4.3986 
1 4.25624 
1 4.28097 
1 4.60909 
1 4.46911 
1 4.05413 
1 4.05116 
1 4.90602 
1 4.70838 
1 4.85673 
1 4.61401 
1 4.04805 
1 4.48025 
1 4.28576 
1 4.8206 
1 3.94523 
1 4.46051 
1 4.54562 
1 4.44609 
1 4.39786 
1 3.84727 
1 5.03639 
1 4.52175 
1 4.05002 
1 4.59589 
1 4.12913 
1 4.32504 
1 4.06144 
1 5.19377 
1 4.35876 
1 4.00496 
1 4.27109 
1 4.82343 
1 4.5994 
1 4.11301 
1 4.61922 
1 4.78717 
1 4.62671 
1 4.43658 
1 4.28571 
1 4.10001 
1 4.87921 
1 4.89873 
1 5.41621 
1 4.6846 
1 4.04291 
1 4.7701 
1 4.7156 
1 4.57778 
1 4.84477 
1 5.10221 
1 4.47361 
1 4.97444 
1 5.4316 
1 5.06556 
1 4.18912 
1 4.85724 
1 4.20513 
1 3.95899 
1 5.04798 
1 4.74802 
1 4.51809 
1 4.0528 
1 4.88494 
1 4.11389 
1 4.47728 
1 4.3836 
1 4.3173 
1 4.36221 
1 3.95554 
1 3.22534 
1 4.89373 
1 5.06792 
1 4.84183 
1 5.00187 
1 5.12373 
1 4.71832 
1 5.20961 
1 4.74254 
1 4.43976 
1 4.07026 
1 4.90928 
1 4.50515 
1 4.59033 
1 4.47178 
1 4.57528 
1 4.40669 
1 4.60728 
1 4.27121 
1 4.69879 
1 3.99606 
1 3.99656 
1 4.29596 
1 4.95947 
1 4.74084 
1 4.61347 
1 4.1102 
1 3.99827 
1 4.56304 
1 4.39165 
1 4.2959 
1 4.99554 
1 4.75049 
1 3.79722 
ITEM: TIMESTEP
55500
ITEM: NUMBER OF ENTRIES
200
ITEM: BOX BOUNDS pp pp pp
0 32.5475
0 32.5475
0 32.5475
ITEM: ENTRIES c_BTYPE[*] c_BOND[*] 
1 4.27149 
1 4.12504 
1 3.82525 
1 5.40252 
1 5.63331 
1 4.55336 
1 4.48654 
1 5.43351 
1 4.64279 
1 4.27912 
1 4.69723 
1 4.44511 
1 4.3583 
1 4.49373 
1 5.47755 
1 4.41571 
1 3.91957 
1 3.54984 
1 4.69051 
1 4.20077 
1 4.01466 
1 4.79302 
1 4.47063 
1 3.32494 
1 4.29281 
1 4.2158 
1 4.59271 
1 5.21468 
1 3.8903 
1 4.3504 
1 4.05708 
1 4.92331 
1 5.7685 
1 4.91887 
1 4.44863 
1 4.41634 
1 4.67645 
1 4.68796 
1 3.94883 
1 4.46326 
1 5.00357 
1 4.79284 
1 5.30352 
1 4.45335 
1 4.28415 
1 4.70052 
1 3.49876 
1 4.99372 
1 4.36288 
1 4.34743 
1 4.97595 
1 4.98603 
1 4.46791 
1 4.86366 
1 5.01306 
1 4.20753 
1 4.70525 
1 4.46784 
1 5.03171 
1 5.0089 
1 4.46544 
1 4.47368 
1 5.3403 
1 4.78532 
1 4.48221 
1 4.08043 
1 5.07741 
1 3.98756 
1 4.54285 
1 5.226 
1 4.77147 
1 4.3868 
1 4.71522 
1 3.72594 
1 4.17755 
1 4.56875 
1 3.82261 
1 5.40859 
1 4.4601 
1 4.21255 
1 4.97973 
1 3.75532 
1 4.52515 
1 4.85222 
1 4.39223 
1 3.94961 
1 4.80174 
1 5.01257 
1 5.12065 
1 3.89991 
1 5.09632 
1 4.95151 
1 4.13032 
1 4.44768 
1 4.3396 
1 4.36647 
1 4.83568 
1 4.5285 
1 4.88681 
1 4.06838 
1 3.83123 
1 5.01743 
1 5.3646 
1 5.08418 
1 4.25832 
1 5.57921 
1 4.46709 
1 5.10968 
1 4.10723 
1 3.68261 
1 4.30243 
1 3.94742 
1 4.35881 
1 4.98016 
1 5.12556 
1 5.03996 
1 4.00104 
1 4.56598 
1 3.68319 
1 3.90347 
1 3.97095 
1 4.93959 
1 3.63339 
1 4.62143 
1 3.90222 
1 4.13166 
1 4.21731 
1 4.51491 
1 4.54084 
1 4.81221 
1 5.30101 
1 4.22949 
1 3.36097 
1 4.17527 
1 4.98654 
1 3.83374 
1 4.23402 
1 3.64777 
1 4.63415 
1 3.82867 
1 4.17911 
1 4.65653 
1 4.73252 
1 5.29047 
1 5.04704 
1 5.55803 
1 5.49123 
1 4.03018 
1 3.66246 
1 4.25677 
1 4.18961 
1 4.62441 
1 4.99643 
1 4.74595 
1 3.6843 
1 5.28223 
1 3.82508 
1 4.6682 
1 4.79723 
1 4.03999 
1 4.40924 
1 4.4387 
1 4.97832 
1 3.65464 
1 4.78415 
1 4.62822 
1 5.45531 
1 3.84323 
1 4.0229 
1 4.95995 
1 4.54996 
1 4.25787 
1 4.43856 
1 4.22339 
1 3.65995 
1 5.40552 
1 5.18014 
1 4.7923 
1 4.19071 
1 4.28426 
1 4.49761 
1 4.57636 
1 4.35752 
1 4.04154 
1 4.45225 
1 4.15044 
1 4.39622 
1 4.98636 
1 4.78981 
1 4.76634 
1 3.95246 
1 4.51348 
1 4.06277 
1 4.58334 
1 5.00135 
1 4.32099 
1 4.80099 
1 4.29133 
1 4.70419 
1 4.01838 
ITEM: TIMESTEP
56000
ITEM: NUMBER OF ENTRIES
200
ITEM: BOX BOUNDS pp pp pp
0 32.5475
0 32.5475
0 32.5475
ITEM: ENTRIES c_BTYPE[*] c_BOND[*] 
1 4.02501 
1 4.19494 
1 4.93997 
1 4.04523 
1 4.90269 
1 4.30141 
1 4.24709 
1 4.00433 
1 3.74779 
1 5.20194 
1 4.33778 
1 3.78254 
1 5.08906 
1 4.28656 
1 3.97118 
1 4.5926 
1 4.48696 
1 4.04344 
1 4.28558 
1 5.05436 
1 5.7651 
1 4.27639 
1 4.22841 
1 4.48027 
1 5.05823 
1 4.89155 
1 4.508 
1 4.81762 
1 4.61419 
1 5.05012 
1 5.44498 
1 4.11192 
1 4.7281 
1 4.81276 
1 5.32057 
1 4.92499 
1 4.26433 
1 4.41645 
1 5.36747 
1 5.2499 
1 4.4506 
1 4.24844 
1 5.17919 
1 5.79264 
1 4.56871 
1 4.23682 
1 4.72927 
1 4.68583 
1 4.6646 
1 4.70435 
1 5.13565 
1 4.45098 
1 4.96606 
1 3.64711 
1 4.09188 
1 4.80285 
1 3.63068 
1 3.99332 
1 4.18358 
1 5.21402 
1 3.61593 
1 4.08729 
1 4.05353 
1 4.29073 
1 3.72761 
1 4.81646 
1 4.39905 
1 4.05995 
1 4.75377 
1 4.91966 
1 4.66619 
1 4.85381 
1 5.14651 
1 5.16788 
1 4.0928 
1 4.47217 
1 4.82135 
1 4.50908 
1 4.58403 
1 5.07893 
1 4.7732 
1 4.96974 
1 4.43065 
1 5.31933 
1 5.05682 
1 4.56607 
1 4.43722 
1 3.71688 
1 3.82905 
1 5.31086 
1 3.58231 
1 4.33254 
1 5.4506 
1 4.7994 
1 5.01729 
1 4.32933 
1 4.92549 
1 3.79557 
1 3.68451 
1 4.57093 
1 3.23229 
1 4.16849 
1 5.17788 
1 5.60264 
1 4.9198 
1 4.52179 
1 4.53437 
1 4.70141 
1 4.80557 
1 4.63614 
1 4.75197 
1 4.84524 
1 4.17357 
1 4.38949 
1 3.7181 
1 4.83413 
1 4.06302 
1 4.07533 
1 4.14264 
1 4.5247 
1 4.09429 
1 4.41837 
1 4.38167 
1 4.0013 
1 5.43956 
1 4.43349 
1 4.1418 
1 4.76986 
1 5.24308 
1 3.84353 
1 3.40359 
1 4.051 
1 4.07845 
1 4.58553 
1 4.43931 
1 4.74066 
1 4.17704 
1 4.68776 
1 4.4848 
1 4.46263 
1 4.25183 
1 4.87949 
1 4.72075 
1 4.08263 
1 4.30554 
1 3.73886 
1 4.13256 
1 4.19727 
1 4.6839 
1 4.41773 
1 5.23665 
1 5.27262 
1 5.08162 
1 4.17411 
1 4.6119 
1 4.63688 
1 3.71522 
1 4.66957 
1 4.84558 
1 4.39937 
1 4.42813 
1 4.4788 
1 4.20921 
1 4.0562 
1 4.28082 
1 4.12252 
1 4.84518 
1 4.32137 
1 4.0751 
1 3.67843 
1 4.43474 
1 4.77422 
1 4.4905 
1 4.1183 
1 4.34346 
1 4.38043 
1 3.7312 
1 5.06015 
1 5.10292 
1 4.09878 
1 4.31213 
1 3.75588 
1 4.45145 
1 4.64009 
1 3.85222 
1 4.25249 
1 5.63581 
1 4.52079 
1 5.01288 
1 4.24044 
1 3.97931 
1 4.6177 
1 5.5467 
1 5.46194 
1 4.52136 
1 4.96283 
1 4.48809 
1 4.08532 
1 4.71539 
1 4.61803 
ITEM: TIMESTEP
56500
ITEM: NUMBER OF ENTRIES
200
ITEM: BOX BOUNDS pp pp pp
0 32.5475
0 32.5475
0 32.5475
ITEM: ENTRIES c_BTYPE[*] c_BOND[*] 
1 4.2481 
1 4.68469 
1 4.79584 
1 5.58151 
1 3.80625 
1 4.76559 
1 4.50692 
1 4.43122 
1 4.10418 
1 5.27926 
1 4.82453 
1 4.96191 
1 4.71491 
1 4.1385 
1 4.11458 
1 3.7115 
1 4.26661 
1 4.02382 
1 4.74011 
1 4.76972 
1 5.14068 
1 4.33284 
1 3.79662 
1 4.48798 
1 5.54526 
1 3.87383 
1 3.95952 
1 4.65441 
1 5.17601 
1 4.69773 
1 5.18699 
1 4.54331 
1 4.34906 
1 4.27187 
1 4.90477 
1 4.9136 
1 5.29551 
1 4.66403 
1 4.38187 
1 4.66202 
1 4.44631 
1 3.97239 
1 3.76905 
1 5.02986 
1 4.26747 
1 4.57917 
1 3.8067 
1 5.05093 
1 4.31137 
1 4.72289 
1 4.1858 
1 4.91112 
1 4.2623 
1 4.31033 
1 4.77326 
1 4.2739 
1 4.38861 
1 4.66833 
1 4.33389 
1 4.14704 
1 4.83154 
1 4.76881 
1 4.73102 
1 4.76282 
1 5.38335 
1 4.51504 
1 4.51146 
1 4.84222 
1 4.38185 
1 4.72304 
1 4.57524 
1 4.26215 
1 5.39283 
1 4.49091 
1 5.42346 
1 5.04192 
1 4.27018 
1 4.83931 
1 3.96119 
1 4.01387 
1 4.68328 
1 3.83153 
1 4.29889 
1 4.12385 
1 4.17944 
1 4.04985 
1 5.41703 
1 4.24348 
1 4.61045 
1 4.87566 
1 3.91883 
1 4.18059 
1 4.85974 
1 4.81295 
1 4.4359 
1 4.21983 
1 4.64785 
1 4.59054 
1 4.56901 
1 5.2351 
1 4.35438 
1 5.07734 
1 4.6742 
1 4.50729 
1 4.19893 
1 4.65806 
1 4.11247 
1 4.76794 
1 3.60673 
1 3.49268 
1 5.53579 
1 4.05403 
1 5.35872 
1 4.74096 
1 5.10114 
1 5.07331 
1 4.54142 
1 4.25869 
1 4.23696 
1 4.48744 
1 4.70073 
1 3.38502 
1 3.95303 
1 3.85992 
1 4.95382 
1 5.06536 
1 4.93892 
1 4.87844 
1 5.45919 
1 3.97754 
1 4.69509 
1 4.09325 
1 4.18052 
1 4.70187 
1 4.0718 
1 4.10976 
1 4.18062 
1 4.32419 
1 4.73931 
1 4.80583 
1 5.19007 
1 5.1882 
1 4.91088 
1 4.2997 
1 4.23895 
1 5.26042 
1 4.80349 
1 5.19043 
1 4.43652 
1 4.35442 
1 4.05656 
1 4.53999 
1 5.12967 
1 4.11953 
1 3.88217 
1 5.38176 
1 4.6554 
1 4.00598 
1 4.61002 
1 4.47018 
1 5.34979 
1 4.5164 
1 4.8112 
1 4.97744 
1 4.65066 
1 4.65515 
1 4.54463 
1 4.15588 
1 4.29916 
1 4.9519 
1 4.87144 
1 3.70102 
1 4.60047 
1 5.83194 
1 4.35318 
1 4.78364 
1 4.93683 
1 4.56032 
1 5.28014 
1 4.45084 
1 4.04476 
1 4.42826 
1 4.14131 
1 5.33182 
1 4.30716 
1 5.07716 