ITEM: TIMESTEP
1000
ITEM: NUMBER OF ATOMS
300
ITEM: BOX BOUNDS pp pp pp
2.2402662283586565e+00 3.5759733771641379e+01
2.2402662283586565e+00 3.5759733771641379e+01
2.2402662283586565e+00 3.5759733771641379e+01
ITEM: ATOMS id mol type xu yu zu 
1 1 1 17.8283 11.6564 3.3248 
2 1 1 14.2884 12.6776 6.44361 
3 1 1 10.5248 16.6262 7.05351 
4 2 1 12.2411 36.9903 6.3044 
5 2 1 11.4945 32.2837 6.1975 
6 2 1 9.43905 29.145 4.12015 
7 3 1 21.1966 22.6382 2.67982 
8 3 1 22.6769 25.2275 5.99729 
9 3 1 23.7264 23.7183 10.4688 
10 4 1 22.8165 15.8234 36.7453 
11 4 1 22.2783 14.5587 32.6793 
12 4 1 21.9914 10.2148 30.9972 
13 5 1 29.1321 22.2501 15.2675 
14 5 1 27.6554 20.2292 11.5525 
15 5 1 25.5721 17.599 12.8067 
16 6 1 16.5845 19.8034 21.2275 
17 6 1 14.6528 23.9095 23.2247 
18 6 1 11.1648 23.4448 26.9467 
19 7 1 11.7659 14.4436 12.8176 
20 7 1 10.9581 19.1702 12.5386 
21 7 1 9.66052 23.5871 12.6179 
22 8 1 1.99424 13.2916 13.4351 
23 8 1 3.66233 12.2335 9.11287 
24 8 1 4.58704 16.3352 6.01441 
25 9 1 14.6155 4.45016 11.2376 
26 9 1 17.3109 6.16746 8.96044 
27 9 1 20.371 9.57988 7.54729 
28 10 1 31.8526 17.2333 6.3425 
29 10 1 31.0106 20.083 4.16614 
30 10 1 27.3736 21.9698 6.97889 
31 11 1 -0.791477 26.3621 14.63 
32 11 1 1.51847 30.3051 12.6733 
33 11 1 4.95376 31.1181 10.8686 
34 12 1 23.813 11.061 4.24221 
35 12 1 27.3043 10.35 2.65464 
36 12 1 30.9118 13.4966 1.60917 
37 13 1 34.1874 6.92549 9.97684 
38 13 1 31.715 3.36009 8.61821 
39 13 1 27.6171 1.63549 6.4866 
40 14 1 23.0182 19.9926 6.81898 
41 14 1 21.5884 16.3071 8.66012 
42 14 1 18.4799 13.6719 9.85863 
43 15 1 4.2019 28.2601 23.172 
44 15 1 1.92391 30.0021 27.0499 
45 15 1 -0.103589 32.8645 30.987 
46 16 1 14.4334 19.8709 29.8675 
47 16 1 12.0723 22.95 31.9625 
48 16 1 8.46367 24.56 34.4449 
49 17 1 11.0927 7.92076 3.27464 
50 17 1 15.7294 6.42621 4.01198 
51 17 1 20.1029 5.00987 4.84847 
52 18 1 6.35252 9.16801 22.1388 
53 18 1 9.56222 8.78808 19.23 
54 18 1 12.7007 12.1682 18.1189 
55 19 1 29.7454 20.7121 25.4792 
56 19 1 31.1092 23.5403 29.1309 
57 19 1 33.6703 26.5338 29.6666 
58 20 1 24.0462 33.5668 29.1424 
59 20 1 23.8248 31.1144 32.7529 
60 20 1 21.7774 27.9168 35.2213 
61 21 1 -0.370575 20.9145 12.2352 
62 21 1 2.35973 17.4751 10.3747 
63 21 1 7.13625 15.5352 10.6829 
64 22 1 17.008 1.3639 5.47192 
65 22 1 18.7434 -0.233229 8.66592 
66 22 1 19.4635 -3.83558 12.5591 
67 23 1 10.5437 12.804 2.93454 
68 23 1 7.47917 15.5603 1.44683 
69 23 1 5.52835 20.6231 2.35996 
70 24 1 10.2936 1.18879 29.2261 
71 24 1 15.0551 1.90382 29.123 
72 24 1 19.4474 0.65418 30.0199 
73 25 1 15.0174 20.8275 15.2837 
74 25 1 11.9095 18.146 18.4015 
75 25 1 11.2639 16.3474 21.8692 
76 26 1 5.33807 21.2685 30.4172 
77 26 1 5.67672 25.7546 30.7634 
78 26 1 6.92391 28.5075 27.7474 
79 27 1 24.1434 7.06759 34.8219 
80 27 1 19.0858 7.65909 34.3808 
81 27 1 16.9323 3.76826 33.6001 
82 28 1 27.4437 10.8001 13.653 
83 28 1 26.0537 13.6893 10.6703 
84 28 1 26.7529 16.1695 6.55962 
85 29 1 33.097 25.2772 20.4993 
86 29 1 34.0119 23.3086 24.4353 
87 29 1 35.2619 20.3614 27.4726 
88 30 1 24.2905 28.5501 11.5475 
89 30 1 23.7187 32.3795 9.05753 
90 30 1 22.8714 36.9999 8.78444 
91 31 1 18.6017 16.6218 29.1644 
92 31 1 14.4953 14.1583 27.1621 
93 31 1 9.43372 12.8599 27.8859 
94 32 1 10.0111 21.6673 22.3221 
95 32 1 7.13837 19.3362 21.9698 
96 32 1 2.96231 19.3667 22.0555 
97 33 1 18.2539 11.0613 18.5773 
98 33 1 21.9471 11.2521 20.2635 
99 33 1 26.0419 12.1281 23.165 
100 34 1 11.1968 16.51 31.4245 
101 34 1 15.3507 15.7623 32.6099 
102 34 1 18.291 19.623 33.0034 
103 35 1 10.0678 20.0393 2.23831 
104 35 1 14.4139 19.1164 2.70693 
105 35 1 18.7785 18.4006 3.95336 
106 36 1 25.7848 41.3085 21.3014 
107 36 1 27.2921 39.1181 24.4029 
108 36 1 26.7708 35.7795 25.7424 
109 37 1 24.3012 0.0279651 13.6522 
110 37 1 27.6641 3.01513 12.8625 
111 37 1 29.4424 6.52553 12.18 
112 38 1 5.24055 28.7322 34.4801 
113 38 1 8.00539 30.6825 32.4773 
114 38 1 4.96777 33.9868 30.01 
115 39 1 3.28723 16.8583 16.744 
116 39 1 7.02841 14.8863 17.7255 
117 39 1 6.3467 14.3033 22.0862 
118 40 1 24.063 8.06559 15.919 
119 40 1 20.7793 6.82089 17.522 
120 40 1 18.8138 3.05276 19.3026 
121 41 1 10.1324 31.0754 19.8005 
122 41 1 14.8498 29.2653 20.5903 
123 41 1 18.486 27.0124 22.1274 
124 42 1 31.1288 12.222 23.5287 
125 42 1 31.3813 9.27384 25.8188 
126 42 1 32.2575 4.26972 25.3155 
127 43 1 20.5374 19.2655 25.7344 
128 43 1 18.1688 22.3004 28.1009 
129 43 1 16.3225 25.7093 29.3168 
130 44 1 6.9705 27.3027 7.82338 
131 44 1 5.33848 25.2121 5.0787 
132 44 1 2.92575 21.1122 6.3547 
133 45 1 6.35078 11.5452 4.30918 
134 45 1 2.8083 12.8625 1.88004 
135 45 1 1.37679 17.2863 2.44746 
136 46 1 7.73709 31.7142 23.985 
137 46 1 12.2115 33.5514 24.1114 
138 46 1 16.5424 31.1892 24.6163 
139 47 1 16.8363 17.1496 17.3542 
140 47 1 16.1979 13.598 14.473 
141 47 1 14.4218 10.3179 10.7309 
142 48 1 28.7039 2.35428 30.4371 
143 48 1 23.8708 4.90528 29.1209 
144 48 1 19.2167 6.01824 29.0866 
145 49 1 29.1145 29.3881 32.5557 
146 49 1 29.5943 31.0291 28.2537 
147 49 1 31.8912 32.9823 24.8693 
148 50 1 13.1926 24.0985 18.3395 
149 50 1 13.4627 27.0283 14.0765 
150 50 1 10.2732 28.7772 11.1722 
151 51 1 2.82437 23.3214 16.734 
152 51 1 5.12788 23.6362 20.9271 
153 51 1 6.21725 23.5892 25.7405 
154 52 1 20.3257 32.4595 17.555 
155 52 1 20.3644 31.6248 21.1053 
156 52 1 21.5757 30.9628 25.0219 
157 53 1 29.6055 35.5517 21.3422 
158 53 1 26.5095 31.6198 22.4661 
159 53 1 24.2228 27.8136 21.869 
160 54 1 30.8676 12.0629 18.4591 
161 54 1 26.8544 12.4778 18.4454 
162 54 1 24.4201 15.4515 18.131 
163 55 1 31.8728 24.37 8.60608 
164 55 1 32.6593 28.3977 7.09618 
165 55 1 32.5389 30.1817 3.33065 
166 56 1 5.08366 29.9427 17.4091 
167 56 1 8.3061 32.0977 15.2484 
168 56 1 10.6586 34.2482 11.0466 
169 57 1 25.1567 28.9064 27.8906 
170 57 1 20.8461 28.4529 29.3588 
171 57 1 16.952 30.2064 31.3941 
172 58 1 25.6984 23.2969 21.1719 
173 58 1 28.5128 27.1503 19.0888 
174 58 1 28.7814 29.1765 14.7163 
175 59 1 3.53519 16.597 31.5459 
176 59 1 1.98582 14.054 28.4122 
177 59 1 2.9184 8.98115 27.023 
178 60 1 11.4742 8.26543 14.4166 
179 60 1 15.6589 7.82628 15.3995 
180 60 1 19.315 8.46005 13.0471 
181 61 1 19.2927 26.9394 17.0748 
182 61 1 18.1639 23.2803 18.4176 
183 61 1 20.8797 22.0809 21.4268 
184 62 1 23.9087 8.60844 11.0819 
185 62 1 21.911 12.2671 13.2965 
186 62 1 20.8251 15.8107 15.0432 
187 63 1 36.0703 7.42054 5.49353 
188 63 1 32.1746 7.52456 3.25097 
189 63 1 28.4127 4.98144 2.12988 
190 64 1 4.44535 35.7917 14.0143 
191 64 1 -0.0963714 35.986 15.753 
192 64 1 -3.54732 33.4605 16.9146 
193 65 1 10.2749 24.0204 39.3837 
194 65 1 13.1922 26.9763 41.177 
195 65 1 15.1843 30.3635 44.0738 
196 66 1 26.3009 23.6353 29.4066 
197 66 1 27.8452 21.4902 32.8668 
198 66 1 25.4503 20.6607 36.0216 
199 67 1 21.0496 37.1301 13.8499 
200 67 1 16.533 35.0407 15.3865 
201 67 1 14.0236 31.9107 15.5151 
202 68 1 30.2696 12.2672 6.11784 
203 68 1 27.7475 9.20881 7.60067 
204 68 1 25.1639 6.41632 5.89386 
205 69 1 32.7456 20.3948 18.4719 
206 69 1 34.0861 15.4036 20.3846 
207 69 1 35.761 12.6268 23.7421 
208 70 1 29.1029 14.8867 27.8348 
209 70 1 27.0612 17.2606 30.2067 
210 70 1 22.9129 19.1043 30.6611 
211 71 1 16.0538 29.2262 37.8237 
212 71 1 19.2304 32.8486 35.0687 
213 71 1 22.4121 36.0117 33.1282 
214 72 1 9.387 11.6386 8.42986 
215 72 1 8.73331 7.66602 7.54112 
216 72 1 6.72126 4.69942 4.54376 
217 73 1 33.7802 7.71656 15.1479 
218 73 1 37.8673 8.39291 13.5125 
219 73 1 41.1472 11.496 13.2158 
220 74 1 27.3567 33.7747 34.8681 
221 74 1 26.3401 30.844 37.0947 
222 74 1 26.6205 28.0947 40.8681 
223 75 1 24.7319 17.2989 24.1278 
224 75 1 23.6529 13.8718 27.3342 
225 75 1 26.8989 12.1901 31.3283 
226 76 1 16.1162 3.55239 24.0989 
227 76 1 11.2567 4.57742 23.3466 
228 76 1 7.17466 4.57602 26.3989 
229 77 1 8.9 26.3898 17.3488 
230 77 1 5.76339 26.727 13.6025 
231 77 1 3.66036 24.6624 9.80263 
232 78 1 12.3655 37.7992 33.6993 
233 78 1 13.8949 32.9448 34.4665 
234 78 1 12.8819 27.5896 34.132 
235 79 1 22.5802 34.3435 4.79269 
236 79 1 21.1995 29.7189 6.24288 
237 79 1 18.7293 26.1351 9.07703 
238 80 1 38.1388 10.8522 31.2884 
239 80 1 33.0326 9.95202 31.0522 
240 80 1 29.3941 7.19084 30.7207 
241 81 1 20.8025 35.6727 25.5596 
242 81 1 22.9093 36.1152 21.92 
243 81 1 24.5755 36.4844 17.935 
244 82 1 18.7756 11.4211 26.498 
245 82 1 17.2284 10.9273 30.5786 
246 82 1 14.5749 10.5905 33.013 
247 83 1 7.43153 20.8034 9.00678 
248 83 1 6.03272 19.8471 13.0107 
249 83 1 7.35304 20.6386 17.339 
250 84 1 31.5861 11.5852 10.6595 
251 84 1 31.3111 16.2615 12.675 
252 84 1 28.7499 16.2249 15.8348 
253 85 1 8.25449 38.7612 12.5977 
254 85 1 11.623 36.7593 16.4218 
255 85 1 14.6705 34.7722 19.7637 
256 86 1 6.60794 2.09023 18.3897 
257 86 1 4.90702 6.20921 17.6731 
258 86 1 3.20337 10.9256 17.7391 
259 87 1 12.8461 29.1052 28.9341 
260 87 1 11.8255 28.198 24.6779 
261 87 1 8.99374 26.6663 22.2027 
262 88 1 14.4441 22.5967 10.4797 
263 88 1 16.1682 22.4387 6.3957 
264 88 1 15.9824 24.0499 1.57434 
265 89 1 13.0483 9.10131 28.0942 
266 89 1 15.1009 8.32133 24.3516 
267 89 1 15.5883 6.88823 20.4789 
268 90 1 19.2893 23.9694 13.1837 
269 90 1 18.5406 19.8366 11.2216 
270 90 1 15.2414 17.9222 8.36173 
271 91 1 21.8617 23.8308 31.6282 
272 91 1 25.7368 25.9763 33.959 
273 91 1 28.8243 25.5277 36.175 
274 92 1 19.838 16.2169 21.4995 
275 92 1 17.0093 13.8421 22.5339 
276 92 1 11.0928 11.5742 23.3808 
277 93 1 27.2828 19.5724 18.9737 
278 93 1 29.1013 16.9583 21.8993 
279 93 1 32.9318 16.6576 25.1018 
280 94 1 -2.05138 17.183 32.2028 
281 94 1 0.0977563 21.0195 33.2061 
282 94 1 0.133639 24.6104 36.0611 
283 95 1 3.24238 0.972454 24.6645 
284 95 1 2.29462 -0.376976 20.1126 
285 95 1 0.160193 -3.6739 18.4568 
286 96 1 15.4343 18.2809 25.516 
287 96 1 10.1169 18.0326 26.6503 
288 96 1 5.66405 16.9112 27.1067 
289 97 1 24.0629 28.2496 17.3087 
290 97 1 24.2998 24.6006 16.053 
291 97 1 22.9924 20.7956 16.5098 
292 98 1 31.1958 27.9219 24.1605 
293 98 1 27.7528 25.3864 25.0433 
294 98 1 22.8613 24.5438 25.6622 
295 99 1 20.1239 6.97218 22.8696 
296 99 1 23.1193 9.2288 25.3552 
297 99 1 26.1044 9.3359 27.2306 
298 100 1 35.3599 6.26476 21.865 
299 100 1 30.6251 7.22571 21.3377 
300 100 1 28.6841 7.12137 17.0887 
ITEM: TIMESTEP
2000
ITEM: NUMBER OF ATOMS
300
ITEM: BOX BOUNDS pp pp pp
2.6459310564454910e+00 3.5354068943554594e+01
2.6459310564454910e+00 3.5354068943554594e+01
2.6459310564454910e+00 3.5354068943554594e+01
ITEM: ATOMS id mol type xu yu zu 
1 1 1 18.7103 21.6086 9.171 
2 1 1 15.3642 19.1376 7.48972 
3 1 1 11.745 19.4667 5.00243 
4 2 1 6.42321 35.2922 8.59464 
5 2 1 7.73169 34.2267 4.96796 
6 2 1 8.9282 30.1313 2.16543 
7 3 1 23.9901 21.8372 3.56527 
8 3 1 22.1851 24.0397 6.50419 
9 3 1 19.2647 26.9771 7.90096 
10 4 1 25.7104 19.0886 33.0086 
11 4 1 22.4336 16.0587 34.1527 
12 4 1 18.9326 14.2772 35.4693 
13 5 1 34.5782 20.3439 12.2135 
14 5 1 30.3098 21.9137 10.3512 
15 5 1 25.4585 21.0038 8.70343 
16 6 1 15.596 22.4188 18.3898 
17 6 1 17.4353 22.4473 22.3584 
18 6 1 15.6982 22.3956 26.6562 
19 7 1 12.9329 14.9274 9.72918 
20 7 1 9.38982 17.0876 9.73877 
21 7 1 9.00529 21.3114 9.28816 
22 8 1 5.34804 10.3851 20.3243 
23 8 1 3.05375 12.5849 17.0531 
24 8 1 1.46531 15.9003 14.5304 
25 9 1 12.1228 7.039 6.24263 
26 9 1 15.585 6.52278 8.87342 
27 9 1 18.7678 3.66728 10.6294 
28 10 1 33.5503 15.3532 8.97198 
29 10 1 30.9053 18.0594 7.08475 
30 10 1 29.101 22.0718 4.20641 
31 11 1 0.659083 30.2042 19.3134 
32 11 1 2.73244 29.7599 15.1722 
33 11 1 3.10483 33.0394 11.7581 
34 12 1 22.9476 11.2507 4.84244 
35 12 1 26.8912 12.478 2.17664 
36 12 1 29.6456 10.6641 -1.09929 
37 13 1 35.325 5.18263 11.4441 
38 13 1 34.8442 6.71527 7.62545 
39 13 1 31.5776 5.65352 4.76364 
40 14 1 20.6252 17.0738 6.27453 
41 14 1 18.9708 15.1924 9.91025 
42 14 1 16.9462 11.5336 11.019 
43 15 1 -4.08644 31.6066 25.1429 
44 15 1 -1.68997 30.7826 28.9385 
45 15 1 -0.317529 29.9325 33.0785 
46 16 1 7.33235 24.2494 28.3242 
47 16 1 8.37137 25.8997 31.7865 
48 16 1 7.11838 25.6898 36.257 
49 17 1 13.972 15.1666 4.36968 
50 17 1 14.2975 11.4739 5.66512 
51 17 1 18.2637 9.62122 5.85392 
52 18 1 6.18709 9.7862 26.6657 
53 18 1 9.22029 8.37732 24.2511 
54 18 1 12.2926 9.69376 21.8007 
55 19 1 29.7544 24.3507 26.054 
56 19 1 32.0389 25.7149 30.0496 
57 19 1 36.4162 25.9748 31.5264 
58 20 1 29.0984 38.7714 32.2477 
59 20 1 25.7309 34.7773 32.6176 
60 20 1 27.3763 30.6827 33.2005 
61 21 1 4.63689 18.0409 8.88831 
62 21 1 5.67247 17.6332 13.1578 
63 21 1 6.75415 15.8528 17.1854 
64 22 1 12.4509 -0.105242 5.84331 
65 22 1 16.0737 2.12492 6.67438 
66 22 1 19.8306 4.53886 5.57519 
67 23 1 5.79234 14.9799 -1.25215 
68 23 1 2.31238 17.7459 -2.01697 
69 23 1 2.05763 21.4711 -2.62549 
70 24 1 14.9426 5.42514 29.9471 
71 24 1 16.8705 0.867726 29.5689 
72 24 1 19.2154 -0.637498 26.9263 
73 25 1 10.619 19.1071 14.0285 
74 25 1 12.846 17.6983 18.0403 
75 25 1 11.3509 14.2399 19.406 
76 26 1 3.64879 19.6602 24.8698 
77 26 1 1.69965 23.9504 25.7176 
78 26 1 0.440406 28.2262 24.2124 
79 27 1 20.9829 11.9778 31.1359 
80 27 1 19.3456 9.05235 33.595 
81 27 1 16.1745 6.62339 34.7757 
82 28 1 25.014 10.595 10.4985 
83 28 1 27.1418 14.039 7.79425 
84 28 1 25.9495 17.3042 4.96227 
85 29 1 31.3133 17.1509 22.7773 
86 29 1 31.5177 18.081 26.6884 
87 29 1 29.6659 16.3483 30.2818 
88 30 1 27.9539 25.7267 12.523 
89 30 1 25.5534 28.7035 10.3545 
90 30 1 27.5706 33.1921 9.2232 
91 31 1 17.5627 15.6414 30.9518 
92 31 1 14.6535 14.4396 28.144 
93 31 1 9.21983 13.4583 28.3634 
94 32 1 12.3661 22.3655 22.8458 
95 32 1 7.85893 22.7634 22.8441 
96 32 1 4.51228 21.5749 19.9921 
97 33 1 16.3817 7.49718 19.8541 
98 33 1 19.899 10.673 17.989 
99 33 1 22.7247 14.3379 18.3632 
100 34 1 13.7938 19.3945 31.181 
101 34 1 16.0545 19.2684 35.1509 
102 34 1 19.1732 20.4076 36.1441 
103 35 1 12.1405 23.2125 1.42381 
104 35 1 15.5192 23.5433 4.99638 
105 35 1 13.6382 23.9413 9.14588 
106 36 1 29.6713 38.5012 22.636 
107 36 1 27.2899 36.4872 24.1833 
108 36 1 22.904 35.7955 27.9389 
109 37 1 26.4065 -0.985416 14.2885 
110 37 1 28.1912 3.95874 13.022 
111 37 1 28.7133 6.48159 9.69434 
112 38 1 -0.215988 34.4302 40.8469 
113 38 1 1.7751 34.312 38.0394 
114 38 1 3.8056 31.9802 34.4459 
115 39 1 9.28595 21.0832 18.0259 
116 39 1 8.05977 18.0893 22.2693 
117 39 1 7.72111 13.7379 23.4479 
118 40 1 25.1994 8.53738 14.986 
119 40 1 23.5125 6.61504 19.2957 
120 40 1 19.983 4.37651 19.1469 
121 41 1 10.0317 31.9402 23.5029 
122 41 1 13.0135 30.3343 20.4061 
123 41 1 15.1136 26.6274 21.2668 
124 42 1 33.005 11.9624 22.7275 
125 42 1 34.1382 9.28843 25.5292 
126 42 1 31.8614 6.30992 27.9325 
127 43 1 21.7802 19.1275 24.6101 
128 43 1 20.5463 23.9593 25.5762 
129 43 1 17.3495 27.276 26.9301 
130 44 1 2.1519 23.2681 2.41375 
131 44 1 2.00243 20.5223 4.89804 
132 44 1 3.324 15.8317 4.75223 
133 45 1 2.18076 10.9483 10.2697 
134 45 1 4.40308 11.5644 6.73565 
135 45 1 4.76941 11.1419 2.76606 
136 46 1 8.81216 29.8937 28.3034 
137 46 1 13.3896 30.2736 27.5034 
138 46 1 14.8566 33.5013 24.8952 
139 47 1 16.3361 13.879 15.9215 
140 47 1 13.3136 10.4628 15.6206 
141 47 1 12.0704 8.90835 11.5327 
142 48 1 23.4969 7.06605 31.7617 
143 48 1 20.3873 8.17112 27.5549 
144 48 1 16.8538 9.88986 27.1994 
145 49 1 27.3014 27.6277 28.6604 
146 49 1 25.69 31.6333 28.9959 
147 49 1 28.222 35.1639 28.9085 
148 50 1 12.8801 26.542 16.1324 
149 50 1 10.7517 27.2405 11.8801 
150 50 1 8.4774 26.0281 8.3031 
151 51 1 1.15957 23.5075 17.0745 
152 51 1 3.0866 26.0671 20.8643 
153 51 1 5.42212 27.3576 24.5006 
154 52 1 18.6839 32.0814 21.7422 
155 52 1 20.7933 27.6552 22.3673 
156 52 1 22.5884 28.1857 27.0283 
157 53 1 31.2345 34.3664 20.2416 
158 53 1 28.0421 30.878 19.9513 
159 53 1 23.4281 28.9741 18.6093 
160 54 1 28.5787 15.3825 18.9484 
161 54 1 26.333 13.4542 15.245 
162 54 1 24.436 14.985 11.705 
163 55 1 34.1199 25.4019 12.2316 
164 55 1 33.0449 25.4794 7.92295 
165 55 1 35.1649 27.5617 5.39197 
166 56 1 9.3983 30.4741 15.7299 
167 56 1 9.87464 32.2169 11.4926 
168 56 1 11.0198 36.6192 9.95627 
169 57 1 22.4386 30.6347 32.534 
170 57 1 17.8555 29.462 32.0879 
171 57 1 12.6953 27.8375 31.8565 
172 58 1 26.7555 19.6242 17.2344 
173 58 1 28.02 23.0387 17.368 
174 58 1 30.4741 27.1415 16.4034 
175 59 1 12.0225 9.60435 28.5662 
176 59 1 9.52189 5.65136 29.5825 
177 59 1 4.62611 6.41055 30.6754 
178 60 1 10.7432 6.15023 15.616 
179 60 1 14.6862 4.4999 13.6676 
180 60 1 18.5244 6.59492 14.6661 
181 61 1 18.7524 26.9347 17.663 
182 61 1 22.0609 23.0764 19.0149 
183 61 1 25.9876 21.51 22.3677 
184 62 1 23.8957 4.36215 9.88832 
185 62 1 20.5575 8.13064 10.2569 
186 62 1 21.2179 11.3475 13.3077 
187 63 1 39.2388 6.22213 2.81308 
188 63 1 36.0562 6.08539 3.02687 
189 63 1 34.0592 8.35355 1.09018 
190 64 1 0.59131 35.948 16.0734 
191 64 1 -1.76038 32.5247 15.3173 
192 64 1 -1.71539 29.2895 12.0323 
193 65 1 12.4386 27.1385 36.9725 
194 65 1 13.8941 28.5552 40.465 
195 65 1 14.8071 31.688 43.4616 
196 66 1 26.4518 20.3594 27.348 
197 66 1 26.9383 22.879 29.9845 
198 66 1 30.4155 20.7592 32.2016 
199 67 1 23.3041 36.1275 14.8723 
200 67 1 18.7119 34.3661 15.6838 
201 67 1 13.8041 32.9849 15.8672 
202 68 1 32.0236 10.9835 6.16459 
203 68 1 28.8174 9.36665 5.64857 
204 68 1 26.0581 7.11337 3.34168 
205 69 1 33.6187 18.8243 18.3805 
206 69 1 36.3365 16.2675 21.1777 
207 69 1 36.4604 14.7893 26.6548 
208 70 1 25.8501 13.533 29.6283 
209 70 1 23.0085 17.587 29.1783 
210 70 1 19.2228 19.8061 29.3256 
211 71 1 17.4972 30.2433 37.7664 
212 71 1 18.9913 33.4963 35.1267 
213 71 1 19.7826 36.7714 32.4821 
214 72 1 8.96285 13.9223 4.03631 
215 72 1 9.24863 11.9659 7.95279 
216 72 1 7.30618 7.64955 10.7675 
217 73 1 37.1343 7.18786 15.8601 
218 73 1 39.8881 11.9395 14.8039 
219 73 1 43.4942 14.2346 14.2624 
220 74 1 29.6471 33.1915 36.636 
221 74 1 30.4762 29.3018 38.2113 
222 74 1 27.322 25.733 39.0426 
223 75 1 25.7818 16.7378 22.923 
224 75 1 23.1671 13.5815 23.2253 
225 75 1 20.5053 14.28 26.4823 
226 76 1 7.82591 3.58795 24.8598 
227 76 1 5.83564 0.0570926 25.7571 
228 76 1 3.39791 -2.92009 28.1688 
229 77 1 5.88303 24.6633 15.9208 
230 77 1 6.22965 27.8197 12.1986 
231 77 1 5.72786 30.3517 7.86866 
232 78 1 7.10904 34.9425 32.4216 
233 78 1 11.4405 33.7269 31.0388 
234 78 1 14.4961 32.8048 33.6758 
235 79 1 23.9535 34.3689 4.18726 
236 79 1 22.6905 32.4963 8.22882 
237 79 1 20.5404 31.8152 11.8285 
238 80 1 44.1422 4.19949 35.0641 
239 80 1 44.0104 8.65186 34.1508 
240 80 1 40.7575 10.1413 31.7188 
241 81 1 23.6535 32.2218 24.3625 
242 81 1 24.6043 34.4938 19.8343 
243 81 1 28.2201 37.9829 17.5512 
244 82 1 15.011 10.787 32.0117 
245 82 1 12.1809 13.6999 32.6328 
246 82 1 9.35522 17.5309 33.4406 
247 83 1 6.53098 21.5376 0.422565 
248 83 1 6.81529 20.9846 3.95957 
249 83 1 4.80505 23.2332 7.92372 
250 84 1 31.3205 7.77834 14.0469 
251 84 1 29.8263 11.5748 12.3152 
252 84 1 30.1152 17.1373 12.2518 
253 85 1 6.97591 35.7511 14.4078 
254 85 1 8.84356 34.1142 18.7751 
255 85 1 12.8936 36.1294 20.2505 
256 86 1 5.86858 -1.91722 20.9253 
257 86 1 4.68754 2.76704 19.6195 
258 86 1 7.64295 6.42707 19.4736 
259 87 1 12.0906 25.1269 28.0227 
260 87 1 10.2899 26.7915 24.2998 
261 87 1 9.48076 25.742 19.7659 
262 88 1 23.3058 28.9605 4.4255 
263 88 1 20.3208 26.308 2.58701 
264 88 1 17.1974 24.3764 -0.663135 
265 89 1 12.9084 4.89467 25.7371 
266 89 1 17.9666 4.94347 24.3805 
267 89 1 21.7483 4.1973 23.5982 
268 90 1 16.907 27.8018 12.9416 
269 90 1 16.8534 22.9886 13.9122 
270 90 1 15.813 18.3848 13.2503 
271 91 1 22.2422 23.6802 31.2592 
272 91 1 24.4336 25.825 33.2297 
273 91 1 28.5138 26.419 33.8909 
274 92 1 19.6748 18.5903 17.9643 
275 92 1 17.6605 15.2418 20.6303 
276 92 1 15.9579 12.5767 23.0849 
277 93 1 26.3895 10.5094 19.9559 
278 93 1 28.278 12.3222 23.0023 
279 93 1 30.9118 12.6334 26.9234 
280 94 1 2.99157 11.3738 29.8916 
281 94 1 0.873048 13.8742 33.0075 
282 94 1 -2.47014 17.0723 35.3742 
283 95 1 0.537481 2.43162 33.2584 
284 95 1 1.66809 1.87644 28.777 
285 95 1 0.212499 1.72692 24.9867 
286 96 1 16.2318 18.1508 24.6876 
287 96 1 11.2949 18.7504 26.3885 
288 96 1 7.94557 18.6121 28.2848 
289 97 1 22.4797 27.1565 14.2347 
290 97 1 22.5972 22.8536 12.9841 
291 97 1 21.0356 18.9293 13.6131 
292 98 1 31.741 21.9802 22.0894 
293 98 1 29.5931 25.6352 21.0541 
294 98 1 25.6954 27.1835 23.3737 
295 99 1 21.2723 9.0849 22.7711 
296 99 1 24.5451 8.58421 24.0056 
297 99 1 26.7928 8.24597 27.5583 
298 100 1 35.9212 5.31532 23.8808 
299 100 1 34.2978 6.72201 20.1751 
300 100 1 30.7842 8.90813 18.8991 
ITEM: TIMESTEP
3000
ITEM: NUMBER OF ATOMS
300
ITEM: BOX BOUNDS pp pp pp
2.6999750575992962e+00 3.5300024942400775e+01
2.6999750575992962e+00 3.5300024942400775e+01
2.6999750575992962e+00 3.5300024942400775e+01
ITEM: ATOMS id mol type xu yu zu 
1 1 1 23.7834 22.3341 10.3469 
2 1 1 19.0407 23.4988 10.7142 
3 1 1 16.429 22.7578 8.96475 
4 2 1 7.05008 30.9516 6.29323 
5 2 1 6.5016 30.2387 2.38125 
6 2 1 8.50923 27.8634 -0.533892 
7 3 1 27.5649 24.8085 5.65616 
8 3 1 23.1477 25.9878 6.40316 
9 3 1 19.35 27.2842 7.08632 
10 4 1 24.7157 18.2428 35.8791 
11 4 1 20.3618 17.5776 33.5202 
12 4 1 15.7562 16.6152 33.9922 
13 5 1 34.0077 16.5798 14.5157 
14 5 1 31.4698 18.1718 12.2319 
15 5 1 27.4831 18.6251 12.5468 
16 6 1 13.3084 19.0418 22.4416 
17 6 1 15.5117 21.85 25.1366 
18 6 1 17.4014 20.2065 29.5562 
19 7 1 14.9515 18.5537 10.8808 
20 7 1 12.2541 22.1403 11.3306 
21 7 1 7.24028 22.3078 12.4856 
22 8 1 6.0654 7.93912 19.737 
23 8 1 3.34401 10.723 17.5224 
24 8 1 2.72674 11.7018 13.3115 
25 9 1 12.9072 5.65888 11.8872 
26 9 1 16.8629 7.3565 8.30217 
27 9 1 20.577 11.5404 7.81232 
28 10 1 31.9194 15.4547 3.71859 
29 10 1 29.5139 18.8532 5.14817 
30 10 1 29.9934 21.4859 8.89124 
31 11 1 -3.8336 28.1827 22.3434 
32 11 1 -0.614627 28.3349 18.7911 
33 11 1 0.924708 27.9914 14.3542 
34 12 1 20.2286 15.315 5.15388 
35 12 1 23.8507 13.4827 2.56243 
36 12 1 28.1096 15.2166 1.11598 
37 13 1 35.0126 7.57159 9.44336 
38 13 1 32.509 7.11952 6.16796 
39 13 1 28.2136 5.63796 5.24146 
40 14 1 20.7747 20.5907 7.07834 
41 14 1 19.6645 17.8703 9.80341 
42 14 1 16.9507 13.6001 10.8931 
43 15 1 -7.28436 30.6858 27.0047 
44 15 1 -5.53479 32.3787 30.7431 
45 15 1 -2.91114 34.0625 35.1121 
46 16 1 8.41129 23.7277 27.6608 
47 16 1 5.50812 24.9763 29.8038 
48 16 1 4.03073 25.8076 33.8094 
49 17 1 16.5292 19.4665 5.37287 
50 17 1 15.2833 15.6124 6.57842 
51 17 1 15.6745 11.9764 6.05271 
52 18 1 6.56551 8.49621 25.9072 
53 18 1 9.78669 9.4421 23.4219 
54 18 1 13.3127 7.99184 22.574 
55 19 1 29.762 27.1067 26.9622 
56 19 1 32.331 28.1462 30.1373 
57 19 1 34.5594 31.0234 32.1391 
58 20 1 32.1566 38.9949 28.7583 
59 20 1 29.4845 39.1458 33.1061 
60 20 1 25.0838 40.0331 34.819 
61 21 1 10.9061 12.6202 6.80317 
62 21 1 10.4033 15.4734 9.12693 
63 21 1 10.1705 17.5636 12.8732 
64 22 1 11.0476 -1.57905 9.44245 
65 22 1 13.452 1.42302 8.55288 
66 22 1 14.7379 3.24956 4.72422 
67 23 1 4.55282 13.9508 -0.905044 
68 23 1 6.89674 17.2986 1.278 
69 23 1 3.50682 20.3182 0.80889 
70 24 1 16.2731 6.15886 30.9273 
71 24 1 18.511 2.35227 28.4124 
72 24 1 21.4288 0.358228 25.145 
73 25 1 11.1846 19.9969 17.9185 
74 25 1 10.9851 15.651 17.4179 
75 25 1 10.66 11.7253 18.8845 
76 26 1 6.15653 18.833 28.9853 
77 26 1 3.47674 21.2409 26.0353 
78 26 1 1.82563 25.3635 26.4054 
79 27 1 19.7335 12.9797 31.4259 
80 27 1 15.0586 12.1048 31.4883 
81 27 1 13.3705 8.92372 33.8224 
82 28 1 29.3901 10.8786 8.46452 
83 28 1 28.8565 15.0392 7.84967 
84 28 1 24.736 16.1064 7.81017 
85 29 1 26.5053 14.1992 24.5365 
86 29 1 26.4588 18.9646 26.4131 
87 29 1 27.2927 23.1481 28.7985 
88 30 1 29.0347 24.9856 12.6645 
89 30 1 25.6613 27.683 10.7752 
90 30 1 22.8478 30.7704 7.60037 
91 31 1 15.3037 16.1656 28.6501 
92 31 1 11.8172 13.2844 27.8417 
93 31 1 7.00522 13.2198 26.6599 
94 32 1 15.1984 26.3654 21.4742 
95 32 1 11.1838 23.844 21.4002 
96 32 1 8.15756 20.382 23.4876 
97 33 1 19.7413 4.96296 15.9844 
98 33 1 20.7222 8.9869 16.879 
99 33 1 21.9832 13.2738 18.1207 
100 34 1 11.8224 23.9338 30.9372 
101 34 1 13.0342 22.3067 35.0929 
102 34 1 16.8531 24.4501 36.3718 
103 35 1 13.7796 27.137 6.54806 
104 35 1 14.9951 27.2028 9.71529 
105 35 1 15.2743 24.9842 13.7537 
106 36 1 29.6717 37.7261 24.3867 
107 36 1 25.6771 36.5676 23.0992 
108 36 1 21.6323 37.7836 25.3409 
109 37 1 29.8259 -2.15285 11.71 
110 37 1 26.888 -0.122886 10.9162 
111 37 1 25.5184 2.55667 7.80702 
112 38 1 5.49964 37.2 45.2606 
113 38 1 3.67021 35.3039 40.9234 
114 38 1 2.06157 34.4238 36.9449 
115 39 1 5.52767 25.5881 16.9492 
116 39 1 6.03484 21.0988 17.6498 
117 39 1 6.01294 15.6575 17.0528 
118 40 1 25.7946 9.38158 14.998 
119 40 1 23.3262 6.48513 12.3102 
120 40 1 22.5852 1.51532 12.6684 
121 41 1 2.66499 31.9112 18.0584 
122 41 1 5.4599 30.4734 15.7969 
123 41 1 10.0334 29.6148 16.1651 
124 42 1 29.9402 4.85847 19.0973 
125 42 1 31.1151 8.44739 18.795 
126 42 1 33.0992 8.46332 22.2969 
127 43 1 21.1401 20.8585 24.2692 
128 43 1 19.0456 25.2175 24.7992 
129 43 1 20.4632 27.9859 27.7742 
130 44 1 3.21533 17.6175 5.33907 
131 44 1 6.66266 14.4639 5.07044 
132 44 1 7.25388 10.2966 3.13369 
133 45 1 1.16126 14.7455 9.0978 
134 45 1 2.79557 12.2815 7.21138 
135 45 1 1.77143 10.8688 3.53184 
136 46 1 13.4814 34.0658 28.96 
137 46 1 15.3603 30.3974 25.283 
138 46 1 18.3715 30.6629 22.3214 
139 47 1 15.7092 13.0078 17.3987 
140 47 1 13.2651 12.7831 14.2647 
141 47 1 12.323 10.4503 10.9684 
142 48 1 17.4897 7.48926 26.0657 
143 48 1 16.6584 11.5352 26.5267 
144 48 1 13.3243 14.1732 22.9558 
145 49 1 22.1176 32.2366 30.5367 
146 49 1 23.6604 35.799 29.5957 
147 49 1 27.2371 38.1393 28.7001 
148 50 1 10.9467 24.4137 16.7559 
149 50 1 10.0737 26.3711 12.4853 
150 50 1 8.75217 26.4937 8.44816 
151 51 1 3.47289 25.0994 21.2329 
152 51 1 6.22213 26.3964 22.6832 
153 51 1 7.29918 28.473 26.0099 
154 52 1 23.1854 26.7437 21.5912 
155 52 1 24.0481 25.4464 25.7112 
156 52 1 22.0834 22.5175 29.0567 
157 53 1 30.7588 33.4936 15.8408 
158 53 1 27.7967 30.3821 16.415 
159 53 1 24.4056 29.8423 15.0144 
160 54 1 32.676 14.1665 18.8676 
161 54 1 28.6134 12.6331 19.0623 
162 54 1 25.9488 14.1866 15.2747 
163 55 1 33.7231 22.6267 5.091 
164 55 1 31.791 25.7037 2.92273 
165 55 1 32.3939 29.5179 3.80707 
166 56 1 5.78627 30.1376 11.1252 
167 56 1 9.27755 33.5383 13.1154 
168 56 1 12.389 34.9506 15.5374 
169 57 1 16.8903 30.1874 30.5621 
170 57 1 13.5295 28.9961 33.826 
171 57 1 11.5639 30.7705 36.9192 
172 58 1 29.2245 17.2925 21.2951 
173 58 1 29.7014 19.104 17.7074 
174 58 1 31.3941 23.5745 17.2919 
175 59 1 12.4663 7.1857 27.7733 
176 59 1 9.01035 5.08057 30.6687 
177 59 1 6.68858 3.88411 28.0163 
178 60 1 15.6495 4.40583 18.9497 
179 60 1 15.0911 7.98375 17.3085 
180 60 1 17.2624 8.72402 13.0737 
181 61 1 18.1073 21.922 20.6117 
182 61 1 21.9195 22.2582 19.8363 
183 61 1 26.2371 22.008 22.5513 
184 62 1 25.3425 10.7046 6.04134 
185 62 1 24.9069 10.8148 10.2859 
186 62 1 21.8258 12.5063 13.3902 
187 63 1 41.2688 2.69182 7.88652 
188 63 1 37.9945 6.66848 6.2402 
189 63 1 34.8568 6.43526 2.25752 
190 64 1 2.27257 33.3065 13.1628 
191 64 1 1.2264 30.7442 8.78888 
192 64 1 -1.31098 26.632 8.42919 
193 65 1 15.1796 30.1144 47.6609 
194 65 1 17.0534 33.7778 47.5414 
195 65 1 17.9755 36.6026 44.185 
196 66 1 25.2979 19.1433 31.2304 
197 66 1 29.3506 20.1998 32.5294 
198 66 1 32.4177 22.9564 30.5218 
199 67 1 18.665 32.0175 10.4927 
200 67 1 19.237 28.6185 12.7552 
201 67 1 18.8302 26.8523 17.3392 
202 68 1 33.9042 11.3208 -3.53359 
203 68 1 30.9153 10.9895 -1.39432 
204 68 1 29.4865 10.8927 2.66945 
205 69 1 34.0938 20.2825 20.0505 
206 69 1 36.157 17.0627 21.7334 
207 69 1 37.0324 12.8369 22.2704 
208 70 1 25.3481 10.1906 30.5196 
209 70 1 25.037 14.1724 29.8837 
210 70 1 22.0576 16.6461 27.8822 
211 71 1 18.1401 34.774 33.7345 
212 71 1 19.859 38.425 35.0088 
213 71 1 19.9907 43.3052 35.6783 
214 72 1 10.5058 7.40043 7.36358 
215 72 1 7.02896 10.4834 8.8556 
216 72 1 5.81015 14.841 10.2346 
217 73 1 42.8569 5.5271 19.0615 
218 73 1 41.5014 7.87704 14.9785 
219 73 1 40.5282 11.9644 13.7061 
220 74 1 31.9441 36.6362 43.149 
221 74 1 30.4522 33.7577 39.9047 
222 74 1 27.7696 30.1657 38.4507 
223 75 1 24.3021 17.7698 19.6155 
224 75 1 22.4588 16.1489 22.9431 
225 75 1 18.6211 16.6348 24.3598 
226 76 1 12.698 3.35065 24.0316 
227 76 1 9.01565 0.336629 25.838 
228 76 1 4.28371 -1.04735 27.7835 
229 77 1 1.83227 22.9069 13.7438 
230 77 1 3.77272 25.636 10.3703 
231 77 1 3.28319 27.0945 6.05684 
232 78 1 8.50255 32.5218 30.6788 
233 78 1 10.1725 34.7253 34.0232 
234 78 1 8.87127 38.5224 35.7103 
235 79 1 21.8037 39.2946 7.10075 
236 79 1 19.9285 35.2213 6.79088 
237 79 1 16.6556 31.0967 6.13137 
238 80 1 35.6269 3.50525 31.2819 
239 80 1 37.7995 8.06349 31.5216 
240 80 1 41.2109 10.2905 30.7015 
241 81 1 24.8157 31.4967 21.6211 
242 81 1 25.7654 34.2844 18.0072 
243 81 1 27.3518 37.0748 15.0618 
244 82 1 10.837 13.3504 34.4423 
245 82 1 11.0391 17.6644 36.5314 
246 82 1 11.024 21.2549 39.4398 
247 83 1 9.48607 25.1627 3.57936 
248 83 1 6.53311 21.8773 4.88546 
249 83 1 3.85882 20.0062 9.67129 
250 84 1 27.7308 6.53627 10.3469 
251 84 1 30.3036 8.81407 13.3637 
252 84 1 30.5085 13.1114 13.0166 
253 85 1 6.83028 35.2742 17.3001 
254 85 1 9.8169 33.0926 20.2296 
255 85 1 14.1795 32.7689 20.2031 
256 86 1 1.22758 -2.20579 23.527 
257 86 1 5.26401 0.746862 22.6142 
258 86 1 6.94098 3.54644 22.8052 
259 87 1 16.4116 25.1393 28.8898 
260 87 1 13.0016 26.5325 26.3009 
261 87 1 10.8014 28.7434 22.717 
262 88 1 23.6973 34.6978 2.98711 
263 88 1 22.0041 29.8972 2.93544 
264 88 1 19.8412 26.8017 0.19386 
265 89 1 17.4691 2.87315 23.4999 
266 89 1 20.9776 2.22994 20.5195 
267 89 1 20.7768 -0.647013 17.7676 
268 90 1 22.7187 25.0144 14.3805 
269 90 1 19.0366 21.3107 15.7713 
270 90 1 17.6604 16.9293 14.6551 
271 91 1 22.1568 22.4734 34.403 
272 91 1 26.0927 24.0348 33.4641 
273 91 1 26.4693 28.2364 32.7052 
274 92 1 18.2862 17.1013 19.4705 
275 92 1 18.2682 11.8145 21.3628 
276 92 1 18.9045 7.09549 21.4299 
277 93 1 24.6917 7.89651 19.88 
278 93 1 27.7581 9.24491 22.7901 