ITEM: TIMESTEP
500
ITEM: NUMBER OF ATOMS
300
ITEM: BOX BOUNDS pp pp pp
1.0498224957422018e+00 3.6950177504257823e+01
1.0498224957422018e+00 3.6950177504257823e+01
1.0498224957422018e+00 3.6950177504257823e+01
ITEM: ATOMS id mol type xu yu zu
1 1 1 7.23919 21.6636 38.5786
2 1 1 4.46852 19.1596 34.2212
3 1 1 2.13417 16.0952 31.9085
4 2 1 35.4662 18.1345 27.5106
5 2 1 30.6967 18.8718 25.7231
6 2 1 26.4997 18.1653 23.9648
7 3 1 13.5134 7.13239 6.53801
8 3 1 17.4083 5.84448 4.12491
9 3 1 20.7153 8.1947 2.37282
10 4 1 26.4815 15.8306 28.7434
11 4 1 26.4061 19.1307 32.5772
12 4 1 29.2437 21.8089 32.4758
13 5 1 11.3554 12.4547 29.5288
14 5 1 11.5441 16.9196 28.4525
15 5 1 14.2192 19.6546 31.7476
16 6 1 28.4604 31.9292 24.3379
17 6 1 28.4375 33.8034 19.178
18 6 1 29.5238 35.8948 15.6124
19 7 1 21.8938 16.6015 30.9545
20 7 1 22.0957 16.4329 26.5751
21 7 1 24.9132 13.0213 23.9027
22 8 1 27.4667 23.0323 12.6495
23 8 1 26.3999 21.1178 16.7345
24 8 1 26.7242 23.025 21.6341
25 9 1 15.1666 17.3487 23.5533
26 9 1 13.1406 18.4928 20.2129
27 9 1 14.9051 19.0134 15.2647
28 10 1 10.8489 5.52901 15.5465
29 10 1 15.7322 6.56671 16.499
30 10 1 20.571 7.37002 16.9392
31 11 1 33.6369 12.5299 17.68
32 11 1 29.6088 13.3655 15.0092
33 11 1 29.2021 15.1511 10.8345
34 12 1 39.2553 11.5013 30.2044
35 12 1 35.2712 10.7266 30.2493
36 12 1 33.516 8.08906 27.755
37 13 1 9.23351 16.8656 14.5181
38 13 1 8.59541 17.2038 18.5795
39 13 1 6.32073 19.1503 21.1884
40 14 1 27.9252 30.2023 13.837
41 14 1 27.8796 27.7297 10.6601
42 14 1 30.6824 27.2161 7.44627
43 15 1 19.7778 3.29422 23.6988
44 15 1 23.834 4.08422 25.5692
45 15 1 28.4513 2.13249 24.5327
46 16 1 12.8468 23.3606 14.2137
47 16 1 9.15376 21.8466 15.853
48 16 1 5.08775 19.8924 14.8421
49 17 1 14.0782 26.3765 23.2748
50 17 1 17.367 25.9423 27.7893
51 17 1 20.7737 25.3161 27.9715
52 18 1 24.5542 6.01393 0.202658
53 18 1 25.0619 10.4066 3.71527
54 18 1 27.7688 10.7766 7.74913
55 19 1 31.7899 25.3218 21.9108
56 19 1 32.0383 20.8342 19.5052
57 19 1 32.0633 18.4528 15.2134
58 20 1 24.6932 0.370879 4.36769
59 20 1 19.3255 0.466368 4.65204
60 20 1 18.1533 4.56395 8.53699
61 21 1 35.6327 12.2646 34.9275
62 21 1 33.0668 8.34518 33.5655
63 21 1 29.2801 5.61335 33.4198
64 22 1 23.3867 5.94798 5.90244
65 22 1 27.6401 6.43931 4.0744
66 22 1 31.2765 7.54239 5.8182
67 23 1 4.78548 7.58979 13.3776
68 23 1 9.09667 5.49504 10.5291
69 23 1 10.7108 1.0799 10.8523
70 24 1 18.0875 9.0834 12.8542
71 24 1 21.1917 6.57499 11.8414
72 24 1 25.6774 6.36392 10.1545
73 25 1 24.456 7.06973 20.9664
74 25 1 22.0608 2.55066 19.249
75 25 1 20.029 -0.975746 21.0436
76 26 1 10.9919 29.9699 31.9442
77 26 1 12.384 26.0016 34.4949
78 26 1 12.0835 22.2552 35.0213
79 27 1 14.0292 11.4897 4.05556
80 27 1 17.1845 12.6595 1.63832
81 27 1 21.9124 14.8592 0.872432
82 28 1 21.5178 20.4174 8.9091
83 28 1 17.7138 22.3023 7.61643
84 28 1 13.4755 24.5711 5.85529
85 29 1 13.0047 35.8015 16.2488
86 29 1 14.9123 34.4319 19.5004
87 29 1 15.2509 35.8398 23.7519
88 30 1 18.2995 16.9612 18.4739
89 30 1 21.9216 17.8122 20.667
90 30 1 21.8785 22.0042 24.101
91 31 1 6.79612 7.62274 28.095
92 31 1 7.60612 9.99959 32.1079
93 31 1 5.0673 12.7371 35.4642
94 32 1 20.2769 11.7442 33.4317
95 32 1 21.5835 11.4366 28.9607
96 32 1 22.1852 8.66435 25.3765
97 33 1 5.85552 31.3298 28.8211
98 33 1 6.86227 26.676 30.3642
99 33 1 3.15562 25.2693 29.4783
100 34 1 18.686 30.6467 25.8469
101 34 1 14.4143 30.7066 28.058
102 34 1 11.326 26.1849 28.257
103 35 1 32.8298 32.3956 14.3176
104 35 1 35.2768 29.2582 17.6062
105 35 1 36.5422 26.1645 21.1227
106 36 1 13.3734 35.8976 28.5525
107 36 1 9.4188 34.4513 29.5656
108 36 1 8.31984 35.073 33.6761
109 37 1 25.3074 21.4243 28.4017
110 37 1 22.5535 22.8924 32.106
111 37 1 17.7307 22.9811 32.169
112 38 1 9.80973 17.0998 23.847
113 38 1 7.08592 18.7935 26.1933
114 38 1 5.48626 23.0328 25.9161
115 39 1 26.8684 28.1991 20.4054
116 39 1 29.8976 26.0473 17.1121
117 39 1 32.1763 25.6928 12.837
118 40 1 3.58455 36.2076 22.671
119 40 1 5.94378 34.5066 24.4648
120 40 1 9.92808 31.6207 25.1575
121 41 1 11.3677 12.7857 18.222
122 41 1 9.37719 11.5963 13.9634
123 41 1 7.18328 10.802 10.555
124 42 1 13.3674 29.5146 39.979
125 42 1 15.9447 29.8905 35.9178
126 42 1 19.6488 27.411 33.4987
127 43 1 18.8037 22.462 13.3268
128 43 1 21.8518 18.9128 15.6573
129 43 1 24.8647 16.0387 16.601
130 44 1 21.8085 11.3259 18.9654
131 44 1 20.8977 13.9402 15.0963
132 44 1 23.1368 16.0469 11.6034
133 45 1 25.7078 8.97763 15.2442
134 45 1 25.0146 11.6169 12.3382
135 45 1 22.8251 10.1282 8.59496
136 46 1 7.74113 3.33772 23.839
137 46 1 4.40789 6.63102 23.5718
138 46 1 3.2276 10.2528 25.0338
139 47 1 23.9915 29.0301 1.09725
140 47 1 20.2022 30.306 3.07638
141 47 1 16.9845 32.3464 6.24288
142 48 1 31.8666 3.78526 28.9421
143 48 1 33.1782 -0.83218 27.2658
144 48 1 32.0178 -3.97208 29.3467
145 49 1 15.9397 10.1838 27.0904
146 49 1 16.5932 9.09865 31.233
147 49 1 16.7177 8.18461 35.4929
148 50 1 12.0794 21.8377 25.4938
149 50 1 9.35633 21.4216 29.8812
150 50 1 7.26818 23.0247 33.8623
151 51 1 36.9756 19.3438 22.9217
152 51 1 36.5777 23.6179 25.3005
153 51 1 34.2263 27.3916 26.6301
154 52 1 10.6576 4.28227 27.7003
155 52 1 11.7894 7.74065 25.8644
156 52 1 12.2629 12.792 23.3586
157 53 1 21.6872 6.64207 32.0599
158 53 1 19.6876 4.35477 28.7056
159 53 1 15.2928 4.35652 26.2467
160 54 1 6.94909 28.1604 35.0447
161 54 1 2.33072 26.3279 34.6487
162 54 1 -1.19285 24.393 35.7036
163 55 1 21.7783 20.5602 4.25
164 55 1 24.8393 17.8717 3.44756
165 55 1 26.7229 14.652 0.17627
166 56 1 27.415 11.506 19.6931
167 56 1 29.1719 14.615 19.9545
168 56 1 32.4178 15.9487 20.8814
169 57 1 0.917291 30.8361 31.9034
170 57 1 2.08859 35.2663 29.6555
171 57 1 5.56897 38.4094 29.018
172 58 1 18.5797 27.4012 8.07799
173 58 1 16.666 26.8551 11.7705
174 58 1 17.9541 26.855 15.6598
175 59 1 29.714 33.492 10.9348
176 59 1 24.6732 33.419 11.0965
177 59 1 21.3633 34.0001 8.25049
178 60 1 15.9675 12.8507 20.5867
179 60 1 15.7848 12.3478 16.0084
180 60 1 14.3168 14.2199 11.9248
181 61 1 17.7401 0.648653 16.1435
182 61 1 20.3994 0.863956 12.0812
183 61 1 23.3339 2.38242 9.37127
184 62 1 32.5675 22.8323 28.5054
185 62 1 29.0832 25.3528 27.0474
186 62 1 24.7681 26.4666 24.7947
187 63 1 17.0835 20.08 27.3711
188 63 1 16.7683 22.417 23.4238
189 63 1 19.5852 25.6618 22.0158
190 64 1 25.3256 23.8584 -0.260948
191 64 1 20.7588 25.1161 2.34044
192 64 1 16.4554 23.6377 1.1134
193 65 1 33.0021 12.7058 7.09727
194 65 1 31.839 11.7945 2.56198
195 65 1 28.7289 9.79179 0.346916
196 66 1 17.7421 18.0219 11.4894
197 66 1 19.4409 13.3541 10.1994
198 66 1 17.9496 10.2467 7.40626
199 67 1 15.7309 2.72423 35.8953
200 67 1 12.5865 4.91259 38.1526
201 67 1 8.34934 5.88497 41.0322
202 68 1 13.574 20.9569 9.70146
203 68 1 12.1257 16.4989 8.02495
204 68 1 11.8227 11.7219 8.29226
205 69 1 34.4551 26.7609 -4.32412
206 69 1 30.5058 26.9733 -4.1072
207 69 1 25.5788 30.3665 -4.35717
208 70 1 18.6116 31.2917 11.512
209 70 1 16.8727 31.9689 14.9955
210 70 1 18.1589 30.1971 20.4704
211 71 1 28.642 14.6727 4.40915
212 71 1 29.4033 18.4854 6.82753
213 71 1 26.4357 22.0688 7.42341
214 72 1 3.5617 15.4114 24.902
215 72 1 2.99803 13.9438 20.3848
216 72 1 6.1112 12.9351 17.6096
217 73 1 30.7753 9.21227 12.0362
218 73 1 34.2637 10.7848 13.0933
219 73 1 35.5576 15.1895 10.8186
220 74 1 22.7716 29.3393 9.67902
221 74 1 22.9137 25.2226 11.8224
222 74 1 24.8098 26.0899 15.4707
223 75 1 14.1991 4.23554 31.2157
224 75 1 12.1965 8.15691 33.0778
225 75 1 12.1923 12.468 34.83
226 76 1 7.91773 13.3818 26.6982
227 76 1 7.36498 14.9442 31.1868
228 76 1 10.0864 17.5516 34.345
229 77 1 8.65388 4.5944 34.2147
230 77 1 8.68994 8.86424 37.0085
231 77 1 9.26224 12.3462 39.8384
232 78 1 30.1642 11.8163 31.5259
233 78 1 31.8279 13.5487 27.8349
234 78 1 34.8459 13.4774 24.9889
235 79 1 20.678 19.452 35.1072
236 79 1 15.9938 18.1084 36.1349
237 79 1 12.76 15.8276 38.2945
238 80 1 28.2424 27.5922 2.85347
239 80 1 28.8341 22.6689 3.3492
240 80 1 29.9029 19.1458 1.05843
241 81 1 19.332 12.8369 24.2474
242 81 1 17.1027 15.0046 27.8305
243 81 1 17.0731 15.5298 32.0174
244 82 1 28.0256 2.56049 8.28403
245 82 1 29.499 4.39001 13.1701
246 82 1 29.0484 4.17762 17.9221
247 83 1 18.2648 7.61145 22.2391
248 83 1 13.8377 8.46756 20.935
249 83 1 8.99257 9.42959 20.9872
250 84 1 5.07438 24.2979 19.0226
251 84 1 4.73571 28.6609 18.833
252 84 1 3.28484 31.4413 20.1684
253 85 1 3.96083 7.86927 35.9982
254 85 1 3.21296 6.73235 32.1471
255 85 1 1.41078 5.17871 27.379
256 86 1 7.66281 4.74834 18.9992
257 86 1 11.6086 2.9783 20.1942
258 86 1 16.05 3.16609 20.4755
259 87 1 23.6799 3.73264 14.5834
260 87 1 22.8066 -1.56131 15.6941
261 87 1 23.061 -5.06016 16.2119
262 88 1 10.386 29.5709 14.445
263 88 1 9.51477 26.7428 17.8247
264 88 1 9.81972 22.5287 20.8555
265 89 1 24.254 14.7303 6.90232
266 89 1 20.2903 15.8405 5.30956
267 89 1 16.3913 17.0975 6.27266
268 90 1 -4.43907 31.4527 -0.282128
269 90 1 -2.65842 35.4782 -2.9815
270 90 1 -0.941658 40.0258 -2.50569
271 91 1 13.6742 29.0892 17.8404
272 91 1 10.4451 31.9297 19.7124
273 91 1 8.09425 35.3887 20.1808
274 92 1 0.784173 37.7251 1.11121
275 92 1 4.35805 38.4306 0.87565
276 92 1 7.96988 37.0375 2.84635
277 93 1 14.1272 37.8225 5.73695
278 93 1 12.5129 34.5744 6.88987
279 93 1 12.6845 32.1803 11.3812
280 94 1 16.1693 -0.0939084 10.0542
281 94 1 14.3052 4.15482 12.1473
282 94 1 12.9769 8.44215 11.6188
283 95 1 14.6849 23.8844 19.0676
284 95 1 18.8098 22.295 17.8083
285 95 1 22.5119 22.5424 18.8981
286 96 1 26.2441 5.88327 29.4961
287 96 1 23.6921 2.13667 30.4418
288 96 1 21.1063 1.83506 35.2533
289 97 1 1.38256 32.2987 25.8731
290 97 1 3.5358 29.1775 24.3373
291 97 1 7.87939 26.9083 24.249
292 98 1 29.1293 33.5595 5.6324
293 98 1 25.7033 30.7554 5.9137
294 98 1 24.1992 25.9121 6.34888
295 99 1 31.4393 17.6624 30.5967
296 99 1 35.0649 19.7151 33.2397
297 99 1 35.8452 16.997 36.8293
298 100 1 29.6691 8.08936 24.2083
299 100 1 26.9474 10.8257 28.0089
300 100 1 25.1627 10.8744 32.7876
ITEM: TIMESTEP
1000
ITEM: NUMBER OF ATOMS
300
ITEM: BOX BOUNDS pp pp pp
2.3801935806575507e+00 3.5619806419342638e+01
2.3801935806575507e+00 3.5619806419342638e+01
2.3801935806575507e+00 3.5619806419342638e+01
ITEM: ATOMS id mol type xu yu zu
1 1 1 6.78843 19.2496 37.421
2 1 1 5.31434 20.9219 32.7228
3 1 1 1.33264 21.4529 30.8498
4 2 1 36.6292 18.5397 25.5105
5 2 1 31.1978 18.6951 25.364
6 2 1 26.5494 17.4185 23.3926
7 3 1 17.6605 -1.6298 3.56818
8 3 1 16.2336 2.50709 5.43295
9 3 1 19.6541 6.84666 5.92202
10 4 1 26.8189 19.3359 27.7613
11 4 1 27.3586 20.5406 31.4655
12 4 1 27.4065 25.1352 33.6429
13 5 1 13.7533 13.5298 30.2889
14 5 1 14.7406 18.4565 29.7306
15 5 1 18.1075 19.3734 26.0974
16 6 1 23.428 33.6445 28.3636
17 6 1 27.3051 31.9817 25.4142
18 6 1 28.9381 30.5151 20.7229
19 7 1 19.847 17.7401 30.9165
20 7 1 22.6151 15.934 27.3563
21 7 1 22.553 13.4094 23.6925
22 8 1 32.4134 19.794 11.4042
23 8 1 30.093 18.7495 15.3445
24 8 1 26.1263 19.7154 18.8267
25 9 1 14.1089 21.9911 25.7006
26 9 1 14.0494 19.5627 21.4599
27 9 1 14.4661 19.5639 15.89
28 10 1 11.3936 3.27651 14.3297
29 10 1 12.2125 7.31548 16.0045
30 10 1 16.1963 9.75273 16.1983
31 11 1 33.8284 7.26827 20.3633
32 11 1 32.4452 11.3969 19.0836
33 11 1 32.596 13.8737 15.0462
34 12 1 38.504 15.9176 30.475
35 12 1 34.2385 14.3224 28.0203
36 12 1 32.5573 11.0292 26.8432
37 13 1 9.50114 20.8946 13.0377
38 13 1 9.58319 18.3384 16.6298
39 13 1 6.20005 16.3724 18.3551
40 14 1 32.3536 29.8782 15.9525
41 14 1 29.1073 27.3532 13.4531
42 14 1 28.329 23.6641 11.0828
43 15 1 20.2486 5.14745 23.8576
44 15 1 23.9499 3.0548 24.1447
45 15 1 27.0405 3.34361 22.4661
46 16 1 13.2107 24.4855 12.1918
47 16 1 7.20028 24.9878 12.4836
48 16 1 5.13066 22.9039 16.0343
49 17 1 11.8528 25.7602 21.6287
50 17 1 15.0615 27.9596 23.4461
51 17 1 18.075 29.2978 22.2846
52 18 1 26.473 11.5119 2.77041
53 18 1 27.8311 13.6341 7.17998
54 18 1 31.2336 15.1635 9.90088
55 19 1 34.2366 21.7602 19.1942
56 19 1 34.5844 17.8238 17.0985
57 19 1 37.3313 15.7392 13.1652
58 20 1 22.7851 2.29761 4.54418
59 20 1 20.0127 -0.219236 7.49474
60 20 1 15.8495 -0.182958 9.71298
61 21 1 37.1087 15.6207 35.6887
62 21 1 33.9332 13.2587 33.6593
63 21 1 30.9248 11.7249 31.2661
64 22 1 24.2057 6.75719 3.28638
65 22 1 27.6789 4.24092 5.99418
66 22 1 29.9475 3.40903 10.1961
67 23 1 7.13787 6.67988 16.8696
68 23 1 6.80847 3.94998 12.6538
69 23 1 6.03936 -0.445252 11.9143
70 24 1 20.4751 8.75878 12.3819
71 24 1 24.3442 8.34042 14.8921
72 24 1 26.9696 4.95145 13.623
73 25 1 24.1614 3.8584 17.1289
74 25 1 20.7273 5.6912 16.8298
75 25 1 16.7122 5.03497 18.5679
76 26 1 5.25689 31.114 39.6983
77 26 1 8.94348 30.9606 37.4737
78 26 1 12.3765 29.2253 35.4359
79 27 1 12.9434 11.7734 6.86343
80 27 1 16.6942 11.9034 5.06313
81 27 1 21.9239 11.7831 5.17291
82 28 1 29.2322 19.2652 6.8162
83 28 1 25.1367 21.148 3.82817
84 28 1 20.366 22.1565 4.6586
85 29 1 13.15 32.9667 17.3287
86 29 1 15.7647 33.3903 20.2624
87 29 1 13.8162 35.0793 23.4814
88 30 1 18.2787 18.3279 18.5461
89 30 1 21.2801 18.0758 21.4937
90 30 1 23.1544 20.9692 24.7801
91 31 1 6.2956 11.9081 27.2042
92 31 1 9.16961 12.6524 31.0962
93 31 1 8.94877 15.1318 34.7803
94 32 1 20.8437 9.56903 27.9969
95 32 1 18.7793 10.5221 24.3871
96 32 1 20.4242 8.70588 20.3009
97 33 1 -1.95905 31.3582 33.6078
98 33 1 1.70572 30.2818 32.1517
99 33 1 3.69249 26.3218 30.6604
100 34 1 19.5333 29.5007 26.9803
101 34 1 14.8426 30.4247 27.7068
102 34 1 11.4836 29.4419 30.0534
103 35 1 31.6012 26.4191 19.7501
104 35 1 35.7698 26.7495 20.8998
105 35 1 40.3399 25.4004 19.7081
106 36 1 14.1044 36.1912 28.5764
107 36 1 10.4534 36.3033 31.0417
108 36 1 7.26606 33.0815 33.2
109 37 1 24.6302 24.1323 28.7184
110 37 1 20.9822 26.1991 30.7375
111 37 1 17.2341 25.5406 27.4478
112 38 1 9.4975 17.9484 21.3353
113 38 1 9.00693 21.9567 23.4461
114 38 1 6.32141 22.6746 26.5061
115 39 1 26.0794 26.2887 20.0908
116 39 1 28.7883 23.626 17.0981
117 39 1 33.3742 23.7531 15.017
118 40 1 3.96816 36.3049 22.7782
119 40 1 6.97905 34.7687 26.2876
120 40 1 6.99154 31.4563 28.6739
121 41 1 11.7268 12.7121 18.6203
122 41 1 9.08969 12.7094 16.478
123 41 1 6.40673 11.5042 11.8105
124 42 1 15.7026 20.5221 34.7378
125 42 1 14.9719 24.4771 34.8193
126 42 1 16.0057 27.6342 32.5101
127 43 1 23.4658 21.7455 8.49702
128 43 1 22.1572 19.206 11.9803
129 43 1 22.4902 18.2447 15.7945
130 44 1 25.6029 11.129 20.4703
131 44 1 21.9756 13.9127 18.5981
132 44 1 19.3514 14.7061 14.5824
133 45 1 29.09 10.1568 15.2005
134 45 1 26.3284 12.6964 12.3986
135 45 1 22.1826 13.7965 10.9937
136 46 1 10.5995 5.1739 26.0564
137 46 1 6.80589 6.4087 25.9652
138 46 1 5.27113 7.70462 22.3683
139 47 1 20.5636 26.6137 3.00812
140 47 1 22.6976 30.3237 4.76734
141 47 1 25.1661 33.0261 7.83691
142 48 1 28.7219 4.96155 27.3199
143 48 1 32.7772 3.15742 28.5689
144 48 1 35.8396 -0.210941 27.828
145 49 1 15.4033 7.30505 26.6972
146 49 1 15.6292 8.59795 30.8479
147 49 1 18.1226 8.80889 34.8716
148 50 1 11.2838 26.2216 26.4311
149 50 1 9.05638 25.31 29.9101
150 50 1 7.69104 27.5605 34.0348
151 51 1 38.006 20.2571 21.2366
152 51 1 34.8232 22.7113 24.1859
153 51 1 31.9173 25.7947 24.5207
154 52 1 9.06317 7.7912 30.7939
155 52 1 10.9986 10.0622 26.9892
156 52 1 11.9611 13.6917 24.0047
157 53 1 21.0112 5.73016 32.9252
158 53 1 19.3386 4.32015 28.7591
159 53 1 19.1174 0.775675 25.1151
160 54 1 4.68345 25.806 40.66
161 54 1 4.58293 22.1731 42.4236
162 54 1 5.97937 17.5358 42.0057
163 55 1 19.548 17.0455 2.50203
164 55 1 23.4087 16.0806 1.19978
165 55 1 26.52 15.0542 -2.04522
166 56 1 27.0965 14.9796 17.0473
167 56 1 30.151 16.4012 19.9251
168 56 1 33.9039 15.74 21.4275
169 57 1 0.938249 35.1547 37.7089
170 57 1 2.32023 35.8095 33.018
171 57 1 5.41124 37.2557 29.9446
172 58 1 15.2288 28.9286 13.0652
173 58 1 18.7915 26.5013 14.4083
174 58 1 20.4251 27.1225 18.6973
175 59 1 32.6233 33.1014 12.1709
176 59 1 27.2296 31.7848 12.7249
177 59 1 23.738 33.8851 13.0022
178 60 1 14.8889 14.5222 15.6622
179 60 1 12.3859 11.3391 12.8553
180 60 1 10.3359 9.08369 9.78802
181 61 1 16.6813 2.9685 13.536
182 61 1 18.6636 4.0393 9.73335
183 61 1 22.6089 5.06236 9.74075
184 62 1 30.2354 22.28 21.8642
185 62 1 27.2878 24.1611 24.677
186 62 1 22.968 26.3752 23.8156
187 63 1 17.162 23.5784 21.6098
188 63 1 16.849 23.6982 17.8613
189 63 1 18.792 21.5822 14.4259
190 64 1 22.592 21.9883 -0.437559
191 64 1 18.1126 22.4701 -2.18795
192 64 1 13.4883 23.7141 -2.69729
193 65 1 35.7146 13.4712 8.30108
194 65 1 34.7755 10.6279 6.37912
195 65 1 31.1905 10.9916 4.56482
196 66 1 16.9709 18.309 11.2129
197 66 1 16.5356 13.4119 10.445
198 66 1 15.8361 8.63218 10.5469
199 67 1 17.5273 -0.430717 30.5871
200 67 1 13.7523 -0.0571034 32.8601
201 67 1 11.0251 2.48735 37.3131
202 68 1 16.0172 20.0761 6.24918
203 68 1 13.5585 16.9937 7.31474
204 68 1 10.2782 14.7057 9.7187
205 69 1 28.1978 28.6798 -3.27748
206 69 1 25.1126 29.347 -0.0866508
207 69 1 21.5187 31.1628 -0.4433
208 70 1 19.0811 31.3395 12.7907
209 70 1 19.289 31.9565 16.8272
210 70 1 20.6491 34.1972 20.4626
211 71 1 28.0576 17.015 2.44719
212 71 1 32.2329 15.6303 4.70277
213 71 1 34.812 18.3301 7.26859
214 72 1 2.83228 11.5986 23.2812
215 72 1 3.95404 11.6788 18.0986
216 72 1 2.97816 9.48142 14.8729
217 73 1 26.2807 8.4089 8.47905
218 73 1 30.2963 9.83849 9.44164
219 73 1 33.9129 8.4904 11.0741
220 74 1 20.0231 28.4189 8.34404
221 74 1 23.0971 29.7757 10.6328
222 74 1 23.3763 28.8133 14.7441
223 75 1 16.6259 4.19 33.9497
224 75 1 13.093 6.00442 35.1116
225 75 1 12.4169 10.241 34.2558
226 76 1 10.83 18.8181 27.3723
227 76 1 10.3304 20.1413 31.7065
228 76 1 10.1619 23.3592 35.6027
229 77 1 7.42567 5.41227 34.6859
230 77 1 8.68376 9.10153 38.4814
231 77 1 7.40682 13.6935 39.2588
232 78 1 31.637 16.9299 31.4895
233 78 1 28.5425 14.5093 27.2484
234 78 1 29.0468 12.9511 23.6527
235 79 1 21.9783 11.8906 31.8913
236 79 1 18.2261 13.013 32.4082
237 79 1 14.9165 15.5474 34.4886
238 80 1 29.7078 28.0893 3.6294
239 80 1 30.5628 24.1237 5.2904
240 80 1 31.5743 20.9515 2.20362
241 81 1 16.6838 13.0466 19.9428
242 81 1 17.2365 15.4308 23.4342
243 81 1 17.6621 14.407 27.6377
244 82 1 32.6906 5.71793 15.3963
245 82 1 28.567 6.27399 18.8458
246 82 1 29.3752 8.18357 22.4529
247 83 1 14.2142 8.71013 20.7616
248 83 1 10.3031 8.98711 21.8711
249 83 1 7.29005 12.9175 21.5281
250 84 1 2.68427 28.5072 12.7752
251 84 1 5.07015 29.9529 16.3904
252 84 1 5.68164 31.5462 21.2599
253 85 1 5.25723 10.1802 33.3723
254 85 1 3.22589 8.4274 29.0718
255 85 1 0.959848 6.1819 25.1363
256 86 1 3.03983 2.39033 16.13
257 86 1 7.74926 1.36803 17.2207
258 86 1 8.84818 3.87973 20.9642
259 87 1 29.2885 1.56732 16.4976
260 87 1 25.5508 -0.910534 18.126
261 87 1 23.7609 -2.74392 20.9706
262 88 1 10.1394 30.4479 13.265
263 88 1 10.8649 27.3465 16.3442
264 88 1 10.7011 23.2215 17.3853
265 89 1 26.6518 17.6122 11.2313
266 89 1 23.6137 17.1359 7.55997
267 89 1 19.2002 15.7388 7.4803
268 90 1 -4.36385 34.0069 -2.88188
269 90 1 -2.46654 36.4843 0.358766
270 90 1 -3.20499 39.8031 2.32543
271 91 1 14.8657 28.5596 18.6465
272 91 1 10.5816 30.3918 20.8698
273 91 1 7.84471 28.6227 24.5253
274 92 1 1.40645 40.4517 0.797374
275 92 1 3.30581 39.0252 4.84853
276 92 1 6.67793 37.3442 7.50417
277 93 1 14.7071 28.2589 6.73086
278 93 1 13.823 24.6716 6.72324
279 93 1 10.7085 21.3279 8.37612
280 94 1 9.49696 -5.40094 8.90846
281 94 1 10.1488 -0.65817 9.07896
282 94 1 12.6576 3.68651 10.1843
283 95 1 19.0477 23.9966 9.71591
284 95 1 22.9306 24.4779 13.217
285 95 1 23.2642 23.0483 17.0669
286 96 1 23.8349 4.98863 28.6287
287 96 1 25.4646 3.5368 32.5313
288 96 1 26.6487 -0.101062 35.865
289 97 1 -1.44235 35.6295 23.5199
290 97 1 0.08449 31.1243 23.4011
291 97 1 3.21984 28.7148 25.955
292 98 1 31.4444 31.1788 7.83841
293 98 1 28.249 28.26 8.52391
294 98 1 25.2172 25.584 5.96037
295 99 1 30.3888 23.7481 29.0961
296 99 1 32.4361 25.4112 32.9146
297 99 1 34.7002 27.1532 36.4116
298 100 1 24.0866 8.39171 24.603
299 100 1 25.7677 10.1895 28.1626
300 100 1 26.3319 8.50439 31.2884
ITEM: TIMESTEP
1500
ITEM: NUMBER OF ATOMS
300
ITEM: BOX BOUNDS pp pp pp
2.7176123727636430e+00 3.5282387627236560e+01
2.7176123727636430e+00 3.5282387627236560e+01
2.7176123727636430e+00 3.5282387627236560e+01
ITEM: ATOMS id mol type xu yu zu
1 1 1 5.03766 18.1322 39.0484
2 1 1 5.2421 18.7814 35.261
3 1 1 6.36939 21.3397 31.5123
4 2 1 35.0984 20.6098 27.8255
5 2 1 30.7513 17.3332 27.4037
6 2 1 27.1725 14.6486 27.2152
7 3 1 16.6509 -2.44881 4.40271
8 3 1 15.863 1.15271 4.91332
9 3 1 17.0761 5.46592 4.45564
10 4 1 28.0401 18.8256 31.9571
11 4 1 25.5985 22.2969 32.4936
12 4 1 26.6188 27.0001 34.4596
13 5 1 11.2106 18.6945 23.208
14 5 1 14.7584 20.8941 24.3084
15 5 1 18.6684 18.7476 25.7432
16 6 1 22.8418 33.3446 27.6333
17 6 1 26.6481 31.6533 24.3476
18 6 1 29.7762 31.4609 20.559
19 7 1 22.7464 18.6895 29.2615
20 7 1 23.2835 16.4125 24.675
21 7 1 25.3358 12.97 23.2017
22 8 1 30.63 21.7432 12.7546
23 8 1 27.9521 17.8569 14.5983
24 8 1 25.951 17.5423 18.8136
25 9 1 15.593 25.4215 21.1313
26 9 1 14.3493 23.225 17.8765
27 9 1 13.1309 19.9526 15.1549
28 10 1 13.5216 7.34745 18.0699
29 10 1 14.0355 11.6608 16.9867
30 10 1 19.0152 12.7671 16.7513
31 11 1 34.8592 7.76943 18.2893
32 11 1 32.6053 11.0456 17.5647
33 11 1 31.1662 14.0532 14.9596
34 12 1 39.2182 16.7725 29.9431
35 12 1 35.7646 13.1024 31.18
36 12 1 33.6325 9.18927 31.905
37 13 1 7.57709 18.8942 19.4375
38 13 1 5.71683 19.0903 23.4097
39 13 1 3.65201 15.5708 26.362
40 14 1 32.1348 30.4495 15.9095
41 14 1 30.5714 26.6245 14.4382
42 14 1 27.5511 25.7609 14.0027
43 15 1 19.7908 4.73497 24.5062
44 15 1 24.2145 4.99479 24.9719
45 15 1 26.9542 3.39413 27.0725
46 16 1 8.1513 27.3101 9.80062
47 16 1 6.47011 26.0475 13.107
48 16 1 3.57994 24.2185 15.169
49 17 1 9.35115 28.6951 24.8913
50 17 1 13.2962 28.9137 23.6302
51 17 1 17.4304 30.3001 22.3393
52 18 1 25.6022 13.7032 6.97499
53 18 1 30.1911 14.2076 9.00259
54 18 1 31.7022 16.9481 11.1535
55 19 1 33.5028 18.8988 23.3426
56 19 1 31.1689 17.376 18.8116
57 19 1 34.4387 18.6394 15.8461
58 20 1 20.844 1.88031 5.21521
59 20 1 19.6305 -0.319336 9.16342
60 20 1 18.0589 -1.63137 13.6804
61 21 1 38.0509 13.4676 36.5889
62 21 1 33.3387 12.839 36.4588
63 21 1 29.5335 9.92185 35.8149
64 22 1 24.5249 8.89001 3.27873
65 22 1 25.8457 4.25823 5.33586
66 22 1 28.6799 2.76842 8.44251
67 23 1 7.95578 8.70987 16.6498
68 23 1 6.93381 6.22752 14.0971
69 23 1 4.31651 3.00855 13.8121
70 24 1 18.6286 8.80758 14.2773
71 24 1 23.8464 9.09911 14.1904
72 24 1 26.8057 5.47332 13.3064
73 25 1 27.4365 3.24501 21.0941
74 25 1 25.1844 2.56851 17.1718
75 25 1 21.5374 4.19094 13.7726
76 26 1 5.33169 29.2258 37.7919
77 26 1 8.21274 27.6745 37.1621
78 26 1 12.1045 27.3669 35.6902
79 27 1 13.4391 13.5583 1.80449
80 27 1 16.6749 11.7498 4.10259
81 27 1 20.4051 12.3316 4.46965
82 28 1 28.239 22.9783 4.49946
83 28 1 23.348 23.3046 5.19264
84 28 1 19.8198 20.204 5.8825
85 29 1 13.9261 33.6278 16.2793
86 29 1 13.6737 32.9988 20.7278
87 29 1 11.914 33.9716 25.1231
88 30 1 16.4726 16.9845 16.3123
89 30 1 19.1241 18.5998 20.5615
90 30 1 23.0062 20.9862 21.222
91 31 1 8.89367 12.8506 31.3335
92 31 1 9.8317 17.2917 33.7758
93 31 1 10.3979 18.9602 37.6458
94 32 1 22.7696 11.4014 27.5105
95 32 1 21.5963 9.27425 23.8452
96 32 1 17.9275 9.07213 19.7862
97 33 1 -1.98079 30.4399 34.7917
98 33 1 -1.62642 27.2669 31.7495
99 33 1 1.49165 27.417 28.7986
100 34 1 20.5776 28.7206 26.3371
101 34 1 15.4311 28.8289 28.4876
102 34 1 11.2284 30.9238 28.7139
103 35 1 29.0766 26.4794 20.0991
104 35 1 33.6924 27.7974 19.8434
105 35 1 38.2877 26.7109 18.7364
106 36 1 14.1184 37.0615 28.8657
107 36 1 9.83837 35.6437 29.323
108 36 1 7.04762 32.8625 31.7277
109 37 1 25.6658 21.01 26.0803
110 37 1 22.7389 23.6816 27.8438
111 37 1 17.4898 24.649 27.7795
112 38 1 10.8755 24.1171 21.1769
113 38 1 8.5612 23.5255 23.6817
114 38 1 6.82673 24.7768 27.2368
115 39 1 24.4571 25.0725 18.627
116 39 1 27.8396 22.1316 17.4559
117 39 1 32.0897 23.2108 18.1313
118 40 1 2.8513 36.1801 22.9637
119 40 1 6.50302 33.0818 26.0363
120 40 1 5.68642 29.6393 28.4719
121 41 1 11.1581 14.9894 14.0449
122 41 1 7.85429 11.5399 12.527
123 41 1 8.01795 9.09558 8.62792
124 42 1 14.6339 18.9677 34.9383
125 42 1 15.5623 23.3647 34.7472
126 42 1 16.7728 26.6923 32.9551
127 43 1 25.3866 21.9928 10.8489
128 43 1 24.0058 20.7855 14.6012
129 43 1 21.7522 16.3125 14.8846
130 44 1 22.7433 5.43209 20.1892
131 44 1 22.936 10.017 18.7133
132 44 1 21.8944 14.683 19.9429
133 45 1 29.3375 9.92078 12.8797
134 45 1 26.4565 13.5753 11.8741
135 45 1 21.9805 12.1185 11.2014
136 46 1 7.44797 5.75486 23.3513
137 46 1 6.01545 10.3535 20.569
138 46 1 8.18204 13.4707 17.7786
139 47 1 21.9437 25.9281 -0.0613223
140 47 1 22.1806 29.2652 3.51931
141 47 1 24.5831 31.6207 7.23609
142 48 1 33.5155 6.28307 27.1254
143 48 1 34.0407 2.70231 29.1733
144 48 1 33.4671 -0.505476 29.7616
145 49 1 16.4883 8.80997 24.8137
146 49 1 19.0135 8.68438 28.521
147 49 1 20.7246 9.51341 32.5187
148 50 1 12.4209 24.7545 26.7987
149 50 1 11.3723 25.9806 30.8961
150 50 1 7.99296 26.9765 31.7147
151 51 1 36.063 22.9524 21.5681
152 51 1 32.6299 24.3657 23.7425
153 51 1 30.2651 28.1567 25.254
154 52 1 10.3593 7.93573 31.8425
155 52 1 10.9613 8.93308 27.0221
156 52 1 13.2166 12.2418 26.7191
157 53 1 19.4318 4.0016 33.4744
158 53 1 19.3297 3.53393 29.423
159 53 1 17.0019 1.18531 26.6933
160 54 1 5.16156 23.9595 37.9029
161 54 1 5.98112 22.6203 41.6253
162 54 1 2.76298 20.7238 43.6614
163 55 1 18.3984 15.9255 0.483954
164 55 1 22.6464 17.5177 2.09322
165 55 1 24.8584 18.3702 4.85392
166 56 1 26.8629 12.8591 17.733
167 56 1 29.3857 12.103 20.6538
168 56 1 32.1292 13.9076 22.9107
169 57 1 2.90909 33.479 39.4772
170 57 1 2.82047 34.0405 34.7717
171 57 1 4.85922 37.3011 32.3176
172 58 1 12.1774 30.2636 7.23499
173 58 1 15.1295 28.0156 9.54354
174 58 1 17.0384 25.9671 13.3432
175 59 1 32.9445 33.8741 11.7087
176 59 1 29.607 33.7492 13.9193
177 59 1 24.8552 34.1012 11.423
178 60 1 12.7445 13.1448 6.98457
179 60 1 12.3832 11.2286 10.7321
180 60 1 11.6102 6.86823 11.8917
181 61 1 14.1663 0.678285 11.2961
182 61 1 16.484 4.49193 9.62271
183 61 1 21.0022 5.9887 8.35459
184 62 1 27.8923 17.0479 23.1949
185 62 1 28.2875 22.1082 22.4173
186 62 1 25.1822 24.9518 23.7575
187 63 1 19.974 24.9782 22.877
188 63 1 19.6834 23.3022 18.1147
189 63 1 18.3496 20.9809 15.0546
190 64 1 19.7293 21.3179 0.816475
191 64 1 16.4362 19.5589 -2.46368
192 64 1 13.0372 16.1941 -2.51459
193 65 1 38.7808 17.208 12.8984
194 65 1 36.3432 14.0918 9.52165
195 65 1 34.378 10.3178 8.35668
196 66 1 17.3806 18.0399 11.1908
197 66 1 16.5815 14.0441 11.748
198 66 1 17.2949 10.1696 8.87294
199 67 1 19.2873 -1.5812 32.3752
200 67 1 15.132 0.19728 32.1896
201 67 1 11.9027 -0.44658 33.7565
202 68 1 16.0355 16.9684 6.34137
203 68 1 13.0469 17.0006 9.7869
204 68 1 8.9063 15.5007 8.4929
205 69 1 30.4867 22.4914 -3.73274
206 69 1 27.4839 25.9439 -3.64583
207 69 1 24.4529 29.3369 -2.30182
208 70 1 20.2908 28.753 17.5514
209 70 1 20.1064 33.1471 17.8018
210 70 1 17.9631 36.2051 18.5791
211 71 1 29.3429 15.5947 3.66039
212 71 1 32.8095 17.2293 5.79247
213 71 1 32.4084 22.1243 7.05279
214 72 1 3.75213 15.4199 19.8495
215 72 1 3.55131 13.2312 15.1635
216 72 1 2.81304 9.34099 13.1893
217 73 1 25.635 8.21219 9.02132
218 73 1 30.2467 7.413 7.91172
219 73 1 33.9759 5.34168 9.12747
220 74 1 18.2845 24.9756 5.924
221 74 1 20.6642 27.5155 8.31008
222 74 1 22.4296 29.7439 12.0408
223 75 1 13.4131 4.39981 34.0596
224 75 1 15.4538 7.44017 32.5782
225 75 1 15.6501 11.3447 31.0215
226 76 1 10.5919 19.993 28.251
227 76 1 11.6834 21.2038 32.0081
228 76 1 9.41566 22.8479 35.1259
229 77 1 8.51915 2.28484 36.2334
230 77 1 9.46478 7.06169 36.8177
231 77 1 9.36794 10.8097 36.324
232 78 1 33.4958 17.1691 31.9841
233 78 1 30.9357 13.3772 31.5041
234 78 1 31.7512 11.1079 27.7435
235 79 1 26.3687 10.5302 31.594
236 79 1 23.1658 13.6139 31.9522
237 79 1 19.5047 14.3894 28.5453
238 80 1 28.0491 29.9093 11.2933
239 80 1 30.8082 29.8394 7.65484
240 80 1 32.7354 26.544 4.23709
241 81 1 12.3246 16.2258 19.4389
242 81 1 15.1319 13.6866 21.5059
243 81 1 18.528 13.1348 23.7194
244 82 1 32.0952 5.80858 13.5312
245 82 1 29.1282 7.06018 17.3378
246 82 1 31.0906 7.11168 21.6082
247 83 1 12.9431 6.12066 22.8362
248 83 1 11.0033 10.2748 21.2392
249 83 1 8.75003 13.7612 24.1471
250 84 1 4.02135 30.1603 10.5908
251 84 1 5.74966 30.6104 15.3012
252 84 1 3.01108 31.9735 19.6393
253 85 1 5.55287 9.37033 33.4728
254 85 1 5.86816 9.36137 28.6043
255 85 1 3.56532 9.54357 24.5907
256 86 1 0.971083 2.7342 17.3908
257 86 1 5.64977 3.50395 18.6778
258 86 1 9.98791 3.29937 18.7593
259 87 1 26.159 -2.6088 16.296
260 87 1 24.5067 -1.84916 19.7168
261 87 1 21.9116 0.125881 22.6126
262 88 1 9.49248 34.687 14.1711
263 88 1 10.6089 30.2047 13.3692
264 88 1 11.7141 25.8781 13.395
265 89 1 28.2073 18.6425 8.16499
266 89 1 23.3402 17.8664 9.42199
267 89 1 20.5801 16.0961 8.20246
268 90 1 -3.981 31.5078 -3.14275
269 90 1 -2.86203 35.0881 -0.442975
270 90 1 -2.6734 36.8029 2.63964
271 91 1 14.6484 28.7591 17.1444
272 91 1 10.9169 29.0258 19.4893
273 91 1 7.38786 32.2526 21.6084
274 92 1 0.96445 39.7382 4.26799
275 92 1 4.77029 38.4101 4.90972
276 92 1 6.1402 37.072 9.05904
277 93 1 12.2795 24.4622 7.32917
278 93 1 10.0521 21.756 10.7619
279 93 1 8.73651 22.6888 16.3014
280 94 1 8.29264 -0.0175592 9.70933
281 94 1 11.4684 3.39867 7.86431
282 94 1 13.5328 7.32292 7.07974
283 95 1 15.7556 22.2383 9.46711
284 95 1 20.1808 22.5248 10.6655
285 95 1 21.8901 25.2212 13.8888
286 96 1 23.9778 6.62434 30.1721
287 96 1 23.9906 2.58329 32.5911
288 96 1 26.2251 0.0715263 35.4452
289 97 1 -1.171 34.2519 24.69
290 97 1 2.0658 30.9018 24.3013
291 97 1 4.6344 27.2657 23.4581
292 98 1 34.6053 25.6074 10.0539
293 98 1 29.6861 25.2563 9.22542
294 98 1 25.7899 27.0918 7.60881
295 99 1 32.1776 22.0246 34.3863
296 99 1 35.5373 24.8905 32.6455
297 99 1 36.2216 29.6214 33.1082
298 100 1 26.4214 8.23473 21.8813
299 100 1 27.9742 9.14378 25.7063
300 100 1 29.002 7.15374 29.6558
ITEM: TIMESTEP
2000
ITEM: NUMBER OF ATOMS
300
ITEM: BOX BOUNDS pp pp pp
2.7221981426172555e+00 3.5277801857382919e+01
2.7221981426172555e+00 3.5277801857382919e+01