ITEM: TIMESTEP
500
ITEM: NUMBER OF ATOMS
300
ITEM: BOX BOUNDS pp pp pp
1.1944130792436667e+00 3.6805586920756198e+01
1.1944130792436667e+00 3.6805586920756198e+01
1.1944130792436667e+00 3.6805586920756198e+01
ITEM: ATOMS id mol type xu yu zu 
1 1 1 15.7038 31.8898 12.9422 
2 1 1 12.384 30.367 11.3456 
3 1 1 7.38995 30.467 9.86959 
4 2 1 12.3166 9.74016 12.3247 
5 2 1 13.531 5.97694 14.8403 
6 2 1 16.4574 2.911 14.7461 
7 3 1 11.7143 17.2583 30.7966 
8 3 1 14.6709 17.6664 33.5964 
9 3 1 18.4197 21.7159 34.9299 
10 4 1 38.7194 11.715 33.1032 
11 4 1 37.3828 8.37192 30.1684 
12 4 1 36.9392 5.36977 26.7629 
13 5 1 29.4923 34.3444 15.0193 
14 5 1 28.6827 29.5679 16.3199 
15 5 1 28.8439 25.6322 17.4505 
16 6 1 20.0573 9.02788 23.5263 
17 6 1 21.6024 7.51511 26.5307 
18 6 1 23.2246 10.9621 28.2708 
19 7 1 19.7453 16.6416 34.1003 
20 7 1 22.1669 19.2237 31.7634 
21 7 1 22.4499 21.7849 28.1169 
22 8 1 16.5566 25.6157 26.8853 
23 8 1 13.5261 23.212 25.4177 
24 8 1 13.65 19.7966 26.526 
25 9 1 1.16928 15.3705 17.1447 
26 9 1 4.09936 14.5699 14.034 
27 9 1 4.92898 16.0981 10.0783 
28 10 1 12.6381 28.7284 28.8246 
29 10 1 9.6897 26.2658 27.7809 
30 10 1 9.61089 21.4616 28.3357 
31 11 1 21.2043 15.4065 28.9359 
32 11 1 18.1804 10.8572 27.7275 
33 11 1 15.1578 9.64856 24.7244 
34 12 1 35.8204 3.52904 17.1585 
35 12 1 31.7103 1.0009 19.0421 
36 12 1 28.3846 -2.69047 19.8071 
37 13 1 24.1483 32.118 17.9313 
38 13 1 22.8545 34.1026 21.669 
39 13 1 20.4843 37.4157 24.6496 
40 14 1 33.8086 24.1111 36.9299 
41 14 1 29.7189 22.3419 36.775 
42 14 1 26.5239 19.3737 35.9398 
43 15 1 30.8428 28.1319 27.1446 
44 15 1 27.1967 25.981 26.7503 
45 15 1 23.4172 25.5752 24.8427 
46 16 1 23.9681 4.2205 5.43905 
47 16 1 25.0745 8.1581 6.76693 
48 16 1 23.5874 11.0707 9.11304 
49 17 1 18.2297 27.7579 11.3293 
50 17 1 20.7287 31.4478 10.2141 
51 17 1 23.4797 33.8176 8.27977 
52 18 1 0.749495 18.6139 7.9589 
53 18 1 3.31152 20.8693 12.3282 
54 18 1 4.19498 20.3811 17.4149 
55 19 1 22.8766 8.46439 13.1163 
56 19 1 27.3591 8.47946 11.415 
57 19 1 30.7907 11.1548 9.65141 
58 20 1 12.2973 31.9254 23.6027 
59 20 1 13.8516 27.4167 22.5622 
60 20 1 15.635 22.9557 20.6737 
61 21 1 34.3342 16.0298 23.2864 
62 21 1 36.1964 11.351 23.8799 
63 21 1 38.0462 8.53266 21.9754 
64 22 1 7.95653 22.4482 14.5023 
65 22 1 8.85453 18.2751 13.0827 
66 22 1 13.0135 16.4656 12.4843 
67 23 1 5.20701 13.0015 24.0944 
68 23 1 4.48932 9.80374 26.622 
69 23 1 6.28241 6.64772 29.4227 
70 24 1 6.11418 23.5502 3.21966 
71 24 1 10.0455 21.7603 4.23118 
72 24 1 13.6519 23.5934 2.47983 
73 25 1 3.71116 36.2838 19.1602 
74 25 1 6.12296 39.3546 21.6573 
75 25 1 7.53072 42.6682 22.8179 
76 26 1 19.6332 34.9654 14.7908 
77 26 1 24.1287 34.3364 13.3382 
78 26 1 24.7974 30.6132 13.3604 
79 27 1 30.821 11.1368 33.2007 
80 27 1 27.3303 8.0253 31.2749 
81 27 1 23.2516 7.36264 31.2904 
82 28 1 28.2929 28.1782 21.4252 
83 28 1 25.2732 23.6365 20.8939 
84 28 1 25.9947 20.1967 24.3504 
85 29 1 2.86677 23.7133 34.4287 
86 29 1 3.85027 24.0307 30.1623 
87 29 1 4.05142 20.3744 27.2028 
88 30 1 24.5879 13.0966 15.7017 
89 30 1 23.5511 17.174 13.2894 
90 30 1 24.608 20.7191 10.7843 
91 31 1 19.7662 36.6281 5.52811 
92 31 1 19.2514 40.5126 5.49072 
93 31 1 19.5612 43.1403 8.23511 
94 32 1 24.1206 30.2409 25.9118 
95 32 1 21.7589 28.0987 28.9905 
96 32 1 19.7919 24.555 30.8001 
97 33 1 25.1579 14.0347 24.6531 
98 33 1 29.732 15.9367 24.6733 
99 33 1 31.4668 19.7905 23.6382 
100 34 1 9.66006 9.43134 7.69177 
101 34 1 10.9988 10.9858 3.00074 
102 34 1 13.0402 8.58913 -0.672922 
103 35 1 14.6062 6.1266 8.23736 
104 35 1 14.3995 6.39293 3.93611 
105 35 1 16.059 9.94099 3.19865 
106 36 1 28.4682 21.3084 29.2761 
107 36 1 25.5074 23.5516 31.7368 
108 36 1 23.3937 27.1609 33.9448 
109 37 1 13.1702 15.2118 17.776 
110 37 1 16.6704 16.9516 19.842 
111 37 1 20.7192 18.6911 18.8513 
112 38 1 33.8025 16.9841 12.8867 
113 38 1 36.0561 13.3453 10.9547 
114 38 1 35.2008 10.3617 7.40025 
115 39 1 33.7332 37.1392 3.46171 
116 39 1 29.6863 33.6809 3.00684 
117 39 1 28.2758 30.1456 5.88873 
118 40 1 4.84759 24.874 21.0621 
119 40 1 9.06719 22.9433 22.3453 
120 40 1 11.8463 19.314 21.0697 
121 41 1 31.8495 9.05267 14.7691 
122 41 1 31.0334 13.2872 14.2722 
123 41 1 28.1535 16.5006 15.0541 
124 42 1 14.5543 24.8083 13.0486 
125 42 1 16.558 20.1939 10.8187 
126 42 1 15.7074 17.0413 7.93554 
127 43 1 15.1788 11.2838 7.48023 
128 43 1 12.138 14.0155 6.45687 
129 43 1 10.3753 17.9499 7.19074 
130 44 1 29.8514 4.56207 26.2001 
131 44 1 30.7922 4.27122 30.4209 
132 44 1 33.1658 6.7199 32.3361 
133 45 1 32.3408 21.3075 6.9699 
134 45 1 30.0055 18.1843 4.56191 
135 45 1 29.1656 14.9542 1.36151 
136 46 1 35.8269 9.84787 1.52849 
137 46 1 35.0348 14.1806 -0.401593 
138 46 1 33.7257 18.2462 1.99662 
139 47 1 18.3475 6.92785 12.7632 
140 47 1 17.5463 11.0487 12.5732 
141 47 1 17.3054 15.4555 14.8974 
142 48 1 13.342 37.4681 10.3867 
143 48 1 16.6254 35.2568 9.5605 
144 48 1 16.5265 31.5348 7.91603 
145 49 1 36.9167 14.0992 5.25043 
146 49 1 32.2261 12.6029 3.96452 
147 49 1 27.6689 13.1067 5.6608 
148 50 1 19.0602 31.8443 19.4629 
149 50 1 19.9415 29.6869 16.2535 
150 50 1 23.5523 26.4227 17.0059 
151 51 1 25.5944 17.5111 28.6746 
152 51 1 24.9819 15.3247 32.7341 
153 51 1 25.9572 11.613 34.6663 
154 52 1 18.1207 11.2606 17.494 
155 52 1 21.2444 13.705 19.7953 
156 52 1 25.3552 16.9715 19.6722 
157 53 1 19.2341 1.65926 19.678 
158 53 1 23.0761 4.14217 20.7018 
159 53 1 27.4847 5.10202 21.3815 
160 54 1 7.48326 16.9134 28.2074 
161 54 1 6.85839 12.7329 29.9342 
162 54 1 8.50151 10.4175 32.0956 
163 55 1 0.49805 7.72458 11.3021 
164 55 1 2.63783 10.2324 15.3558 
165 55 1 5.87842 10.0712 18.2537 
166 56 1 19.088 14.7467 24.5738 
167 56 1 21.2227 18.5821 24.1595 
168 56 1 19.9729 22.8826 23.1438 
169 57 1 22.0263 19.205 2.47596 
170 57 1 25.5306 20.278 5.88452 
171 57 1 26.8456 24.142 6.47603 
172 58 1 32.3978 19.5585 33.2717 
173 58 1 29.8121 15.6151 32.0756 
174 58 1 27.7199 12.458 28.8714 
175 59 1 8.95797 13.8065 10.535 
176 59 1 6.11412 13.3956 6.34295 
177 59 1 6.22256 11.5316 2.03875 
178 60 1 9.60357 27.6947 5.03586 
179 60 1 12.5105 26.7508 6.41651 
180 60 1 17.2809 25.8002 7.0806 
181 61 1 19.5619 15.6315 4.12317 
182 61 1 15.9695 14.213 1.68968 
183 61 1 12.1887 13.6025 -1.02826 
184 62 1 21.0774 4.72212 16.2437 
185 62 1 18.7783 6.61435 19.2959 
186 62 1 17.2318 5.06367 23.2802 
187 63 1 22.0918 24.3807 7.47917 
188 63 1 22.8596 28.719 5.73439 
189 63 1 22.5441 32.6025 3.9265 
190 64 1 16.4087 26.7456 -1.22142 
191 64 1 19.8922 25.4562 2.90617 
192 64 1 24.5465 24.0811 2.28618 
193 65 1 32.2774 15.4946 8.07573 
194 65 1 28.527 18.1346 9.34759 
195 65 1 24.9636 16.067 8.71994 
196 66 1 15.1149 -0.667825 17.8378 
197 66 1 11.5638 0.221546 14.6819 
198 66 1 7.53396 1.50352 15.0363 
199 67 1 31.5736 15.5542 18.7694 
200 67 1 34.1648 11.0255 18.8877 
201 67 1 32.4122 6.81667 19.413 
202 68 1 10.7353 25.262 17.4645 
203 68 1 8.84135 27.3521 14.0571 
204 68 1 6.44255 31.0072 14.7582 
205 69 1 25.6183 2.69283 16.8551 
206 69 1 29.7498 3.36698 14.9487 
207 69 1 32.8901 3.73242 12.2928 
208 70 1 23.0187 9.43542 18.3531 
209 70 1 25.2452 10.1614 22.1076 
210 70 1 26.804 8.64668 25.8457 
211 71 1 32.3166 8.41784 27.3337 
212 71 1 32.6829 13.2283 28.5166 
213 71 1 33.1615 17.9056 28.0795 
214 72 1 31.1308 11.7462 22.7769 
215 72 1 29.3959 10.7266 19.4018 
216 72 1 27.6245 7.58528 16.2236 
217 73 1 19.9577 15.2061 9.61237 
218 73 1 20.4629 19.3217 7.783 
219 73 1 18.3 21.5487 4.73138 
220 74 1 18.2717 26.9163 19.995 
221 74 1 15.0595 29.4714 17.1259 
222 74 1 10.7646 31.0835 17.4859 
223 75 1 16.0693 32.132 27.418 
224 75 1 19.2916 29.5074 24.6959 
225 75 1 23.1607 28.9293 21.4777 
226 76 1 9.64813 4.83351 11.6733 
227 76 1 6.36685 4.15803 10.6534 
228 76 1 2.57217 2.81023 11.1418 
229 77 1 8.25905 17.147 18.244 
230 77 1 8.63871 13.4727 15.7438 
231 77 1 12.4382 10.4336 17.1321 
232 78 1 23.2393 14.5363 37.1768 
233 78 1 22.3829 10.5139 38.205 
234 78 1 19.7482 6.85357 36.4711 
235 79 1 21.0585 11.6539 33.5277 
236 79 1 16.7118 12.7931 32.2734 
237 79 1 12.5076 12.3715 29.8318 
238 80 1 19.1115 24.188 15.2515 
239 80 1 16.7172 20.4948 15.8179 
240 80 1 12.1724 20.2461 16.198 
241 81 1 10.2777 15.1826 24.5888 
242 81 1 7.32874 17.9526 23.5681 
243 81 1 3.56233 18.6979 22.1048 
244 82 1 12.8609 5.33375 20.7925 
245 82 1 8.61127 5.28744 17.7914 
246 82 1 4.35586 5.44406 15.7116 
247 83 1 21.6609 38.5739 10.1159 
248 83 1 26.1405 39.1792 11.4072 
249 83 1 28.372 35.4392 9.16778 
250 84 1 25.6238 27.692 9.63012 
251 84 1 30.2634 28.9252 10.0974 
252 84 1 33.1167 32.0591 7.32188 
253 85 1 26.2375 21.3039 16.1826 
254 85 1 29.8895 21.1741 13.3536 
255 85 1 32.3152 24.1956 11.2842 
256 86 1 16.4135 15.7348 28.9245 
257 86 1 17.4778 19.9944 29.474 
258 86 1 14.7188 22.6164 31.2747 
259 87 1 19.8939 33.0328 30.955 
260 87 1 15.8425 31.5973 34.7992 
261 87 1 15.7476 28.7198 39.0841 
262 88 1 37.4429 29.0068 9.02772 
263 88 1 33.7076 27.6557 5.40028 
264 88 1 30.7694 28.4692 1.99816 
265 89 1 10.2047 22.6039 10.22 
266 89 1 13.8728 21.7631 6.84498 
267 89 1 14.4287 18.8389 3.6799 
268 90 1 7.74881 14.9681 -1.27009 
269 90 1 4.3263 16.4807 1.63915 
270 90 1 5.48966 19.0244 5.64353 
271 91 1 37.6928 13.8125 28.7225 
272 91 1 38.7957 16.7264 31.4295 
273 91 1 42.0913 20.0659 32.7048 
274 92 1 7.44603 8.88173 13.178 
275 92 1 4.39835 10.5874 10.2615 
276 92 1 3.51296 7.52411 6.52185 
277 93 1 31.1939 20.4609 18.1847 
278 93 1 34.3959 22.7276 16.0082 
279 93 1 37.3968 26.9239 15.1627 
280 94 1 9.27009 17.0151 38.104 
281 94 1 10.691 20.5885 34.655 
282 94 1 10.9593 25.7045 32.8051 
283 95 1 9.21937 9.71206 26.3028 
284 95 1 10.5236 4.53644 26.2093 
285 95 1 14.986 1.54037 25.8108 
286 96 1 34.8532 27.0246 19.4278 
287 96 1 31.5759 24.6278 22.2279 
288 96 1 32.4162 23.6648 26.594 
289 97 1 3.58171 29.4856 19.084 
290 97 1 7.1853 32.4055 20.1324 
291 97 1 11.0621 36.3905 19.6339 
292 98 1 37.0959 26.8775 27.1601 
293 98 1 34.6439 26.0468 30.3724 
294 98 1 30.5657 26.8011 33.0483 
295 99 1 26.3392 30.1902 -4.936 
296 99 1 26.3598 31.6107 -0.239404 
297 99 1 24.18 36.1255 1.12519 
298 100 1 1.51422 21.4615 3.81194 
299 100 1 2.43105 23.9919 7.77962 
300 100 1 5.5035 25.13 10.4077 
ITEM: TIMESTEP
1000
ITEM: NUMBER OF ATOMS
300
ITEM: BOX BOUNDS pp pp pp
2.5037304704498453e+00 3.5496269529549956e+01
2.5037304704498453e+00 3.5496269529549956e+01
2.5037304704498453e+00 3.5496269529549956e+01
ITEM: ATOMS id mol type xu yu zu 
1 1 1 11.6544 31.8389 11.9828 
2 1 1 9.3545 31.0713 7.20954 
3 1 1 7.54124 32.6184 3.04509 
4 2 1 15.7566 15.1255 15.3784 
5 2 1 16.8205 10.7929 14.5896 
6 2 1 18.3244 7.71955 11.8469 
7 3 1 10.3504 15.6177 33.5994 
8 3 1 13.9153 19.341 33.1661 
9 3 1 13.9858 23.0037 36.0096 
10 4 1 37.0465 8.78893 28.0935 
11 4 1 36.5497 4.08052 26.1346 
12 4 1 32.6102 1.01043 24.5978 
13 5 1 31.568 29.5668 13.9063 
14 5 1 28.2691 27.2711 15.9121 
15 5 1 24.4872 24.7612 15.712 
16 6 1 19.8579 11.4073 24.5768 
17 6 1 17.8265 7.56065 27.0728 
18 6 1 15.4692 4.2376 30.3406 
19 7 1 24.3711 18.8595 30.6384 
20 7 1 21.2637 22.1658 27.9953 
21 7 1 16.852 24.12 26.8433 
22 8 1 12.608 26.6009 27.5655 
23 8 1 12.2583 22.3205 28.8971 
24 8 1 11.6778 18.2361 29.0865 
25 9 1 6.4738 15.7516 19.2366 
26 9 1 5.17182 14.5953 14.4527 
27 9 1 3.44328 15.1268 10.451 
28 10 1 5.68514 31.9435 27.9256 
29 10 1 7.11557 27.8224 28.9844 
30 10 1 5.94485 23.8339 29.7514 
31 11 1 18.6074 10.92 30.9227 
32 11 1 15.8357 12.5081 27.0437 
33 11 1 14.1364 10.1684 23.7485 
34 12 1 36.7316 1.47592 17.0958 
35 12 1 32.7028 -0.0735317 19.6699 
36 12 1 28.4941 -0.179717 21.767 
37 13 1 24.0895 31.6876 20.2499 
38 13 1 23.8551 31.8057 24.9007 
39 13 1 25.3711 34.3195 28.4497 
40 14 1 36.3677 22.013 33.3024 
41 14 1 31.6564 21.5894 33.8443 
42 14 1 27.3796 20.5207 34.9417 
43 15 1 30.423 28.3259 26.2136 
44 15 1 26.2746 26.4244 26.0998 
45 15 1 22.8174 26.0871 23.7606 
46 16 1 27.7872 6.50588 7.16568 
47 16 1 25.9894 10.854 7.23423 
48 16 1 22.9604 14.9055 7.89952 
49 17 1 17.0497 32.5334 12.2223 
50 17 1 21.4254 30.2749 10.9514 
51 17 1 25.7402 28.2086 11.8575 
52 18 1 -1.47601 17.6055 14.2288 
53 18 1 1.77461 19.8699 12.7839 
54 18 1 5.76459 19.1777 15.2645 
55 19 1 27.9195 13.3789 12.5331 
56 19 1 30.4531 10.5461 9.76763 
57 19 1 30.9255 9.74985 4.64336 
58 20 1 9.071 23.7325 24.9882 
59 20 1 13.181 23.487 23.5004 
60 20 1 15.8236 20.2607 24.014 
61 21 1 34.8947 16.4489 22.5887 
62 21 1 36.2539 12.5884 22.2073 
63 21 1 37.1867 8.41361 22.1835 
64 22 1 5.49973 22.5763 11.7508 
65 22 1 6.68443 19.195 9.27299 
66 22 1 9.35747 16.0208 11.564 
67 23 1 7.83399 11.0647 25.1329 
68 23 1 8.04787 6.65303 24.9435 
69 23 1 8.54672 2.80351 26.4081 
70 24 1 5.45557 26.7642 1.44982 
71 24 1 9.2463 27.7071 3.51127 
72 24 1 12.3356 27.231 6.65388 
73 25 1 3.7638 29.9067 18.4814 
74 25 1 5.07922 32.9822 21.8656 
75 25 1 6.4514 37.0042 21.0456 
76 26 1 23.5831 34.8146 9.98657 
77 26 1 24.1949 33.5197 13.8952 
78 26 1 27.7445 33.3044 16.4392 
79 27 1 31.3597 7.98122 29.4824 
80 27 1 28.7129 7.29603 32.3769 
81 27 1 26.2729 6.59271 35.7895 
82 28 1 26.8735 26.7919 20.9135 
83 28 1 25.8399 22.0723 21.3779 
84 28 1 25.1207 20.2819 25.4068 
85 29 1 1.73159 17.7675 29.5135 
86 29 1 -0.704145 19.4789 25.9762 
87 29 1 0.921777 21.0789 22.7645 
88 30 1 24.8288 16.6931 14.7791 
89 30 1 26.7125 19.8537 15.5307 
90 30 1 27.0125 22.9606 11.1843 
91 31 1 21.9495 37.9796 6.17573 
92 31 1 21.8058 41.6157 8.47451 
93 31 1 18.5172 44.9593 8.98127 
94 32 1 26.8369 29.8684 30.1571 
95 32 1 21.9409 30.2996 29.0939 
96 32 1 18.3615 28.6596 27.5774 
97 33 1 22.6558 9.60153 28.2483 
98 33 1 24.1456 13.5421 25.4794 
99 33 1 27.4686 15.7001 25.5776 
100 34 1 9.61113 7.50797 6.83503 
101 34 1 10.1317 8.98862 1.82327 
102 34 1 14.0112 9.12991 -1.61341 
103 35 1 12.7159 9.15854 11.1493 
104 35 1 14.2551 9.39815 6.844 
105 35 1 16.7973 10.6199 2.88526 
106 36 1 25.9416 23.8444 30.2486 
107 36 1 21.9035 26.1174 31.5551 
108 36 1 19.969 29.3627 33.543 
109 37 1 14.9567 17.4053 19.8781 
110 37 1 18.9422 18.1197 19.5139 
111 37 1 21.7675 20.4557 17.2762 
112 38 1 34.2705 14.4252 17.9162 
113 38 1 32.6586 12.2824 14.2846 
114 38 1 34.65 9.64199 12.8914 
115 39 1 31.0042 37.5382 3.64895 
116 39 1 27.7406 34.2452 5.49904 
117 39 1 23.4288 32.6299 4.31377 
118 40 1 4.66269 24.4874 20.5584 
119 40 1 6.06073 21.4923 21.1899 
120 40 1 10.2712 19.4249 20.7284 
121 41 1 29.6401 8.95422 15.9925 
122 41 1 29.4224 13.332 17.858 
123 41 1 30.5671 17.2229 20.5461 
124 42 1 14.4121 28.0063 12.6889 
125 42 1 14.5611 24.1278 13.4482 
126 42 1 13.3326 19.9841 12.4472 
127 43 1 14.311 14.2834 10.8976 
128 43 1 12.442 17.4329 7.99476 
129 43 1 10.5625 19.5813 4.35055 
130 44 1 29.8222 3.13035 28.908 
131 44 1 32.2278 -1.37964 30.1416 
132 44 1 35.4776 -4.81309 30.3874 
133 45 1 35.5039 19.1904 4.9352 
134 45 1 33.0971 15.9866 1.11157 
135 45 1 31.914 12.2524 -0.343031 
136 46 1 35.2323 1.90195 -0.29342 
137 46 1 35.0688 5.37523 -1.98988 
138 46 1 35.379 9.42552 1.43686 
139 47 1 21.3885 12.8941 12.986 
140 47 1 20.1454 17.0451 13.774 
141 47 1 17.9788 20.1849 14.3795 
142 48 1 15.2343 37.1772 14.1156 
143 48 1 15.1002 37.6099 9.36062 
144 48 1 16.7665 38.3456 4.38402 
145 49 1 33.8082 7.06999 7.40138 
146 49 1 35.0268 11.0115 7.92794 
147 49 1 35.0796 13.6438 5.15675 
148 50 1 19.8413 33.1901 16.418 
149 50 1 23.1845 29.1784 16.1409 
150 50 1 21.4596 26.4755 19.1903 
151 51 1 19.806 15.1275 28.6285 
152 51 1 23.6585 14.233 31.7122 
153 51 1 26.7549 11.5976 34.5652 
154 52 1 18.417 12.0165 18.683 
155 52 1 22.3559 14.0302 20.6344 
156 52 1 25.3475 17.2452 19.6899 
157 53 1 20.0055 3.29284 20.9582 
158 53 1 24.5847 4.83892 20.1011 
159 53 1 28.3794 4.70566 18.5803 
160 54 1 10.0225 13.0044 29.5275 
161 54 1 8.55507 8.17755 30.4407 
162 54 1 8.52011 4.19083 32.9016 
163 55 1 3.69732 4.35553 13.0693 
164 55 1 5.02754 6.56048 16.7218 
165 55 1 5.55303 10.8247 17.6771 
166 56 1 20.9532 17.4898 23.8219 
167 56 1 20.3617 22.2285 23.4362 
168 56 1 17.8672 26.1283 22.5705 
169 57 1 25.325 25.1521 2.39654 
170 57 1 27.978 22.755 6.09524 
171 57 1 31.1693 19.8521 7.11604 
172 58 1 29.3409 20.1585 29.8567 
173 58 1 28.5731 16.333 31.1081 
174 58 1 27.2148 12.0979 29.4178 
175 59 1 6.78049 11.6627 8.55476 
176 59 1 5.1744 8.6411 4.79569 
177 59 1 4.2292 4.81582 3.13996 
178 60 1 11.6418 35.3288 6.10828 
179 60 1 14.9107 32.415 7.80884 
180 60 1 18.5225 31.6312 6.71371 
181 61 1 17.1519 18.8719 4.58028 
182 61 1 14.0561 15.4604 3.74832 
183 61 1 11.0634 12.8483 4.76163 
184 62 1 22.8749 5.72123 15.2352 
185 62 1 18.9702 5.80026 17.3141 
186 62 1 17.3847 6.89099 22.0576 
187 63 1 22.644 21.772 12.5763 
188 63 1 22.8582 25.0045 8.08543 
189 63 1 21.738 28.3537 5.51063 
190 64 1 13.0516 30.992 2.8211 
191 64 1 16.2715 28.3148 3.47224 
192 64 1 19.8997 24.4383 3.8899 
193 65 1 30.6245 14.7997 6.86441 
194 65 1 26.9207 17.7827 9.63511 
195 65 1 24.032 20.2306 8.07561 
196 66 1 14.0095 3.77766 18.7427 
197 66 1 10.713 1.06561 20.5243 
198 66 1 8.48055 -0.633361 17.1461 
199 67 1 30.8174 12.8817 23.112 
200 67 1 32.0933 9.63298 20.2831 
201 67 1 33.6584 5.07384 19.7294 
202 68 1 9.87852 24.5443 19.9486 
203 68 1 8.72963 27.6071 16.9786 
204 68 1 6.09884 29.7005 13.7568 
205 69 1 32.5029 3.44058 14.6847 
206 69 1 31.898 3.45602 9.98099 
207 69 1 34.8991 2.13871 6.81131 
208 70 1 21.7453 9.0306 20.4174 
209 70 1 23.2233 6.68413 24.4033 
210 70 1 26.3184 6.08731 28.1374 
211 71 1 29.3787 5.21041 23.7153 
212 71 1 32.9384 8.21155 25.0888 
213 71 1 32.1603 12.9055 27.6418 
214 72 1 27.3028 9.63509 25.2842 
215 72 1 26.5846 9.4323 21.5785 
216 72 1 24.9651 11.407 17.0611 
217 73 1 17.4767 17.4348 9.21254 
218 73 1 18.5698 21.92 9.14467 
219 73 1 17.5605 26.7445 8.44252 
220 74 1 19.8303 25.9552 13.883 
221 74 1 17.2098 28.1412 17.0303 
222 74 1 13.5227 26.7441 18.3571 
223 75 1 13.8494 32.384 16.3696 
224 75 1 15.5293 31.8317 20.6446 
225 75 1 19.4186 31.0665 21.1198 
226 76 1 10.834 3.51145 11.5327 
227 76 1 6.77831 0.860845 10.5312 
228 76 1 2.20353 -0.13376 12.0549 
229 77 1 10.6832 17.0707 16.4683 
230 77 1 11.0233 14.3749 20.4541 
231 77 1 9.78335 10.1696 20.7734 
232 78 1 23.8914 17.173 36.4003 
233 78 1 22.3634 12.9592 36.0986 
234 78 1 22.3116 9.17517 33.7309 
235 79 1 20.3551 20.2235 34.1249 
236 79 1 18.5573 15.6342 33.7163 
237 79 1 15.3901 14.7641 32.1214 
238 80 1 16.4003 22.6562 19.4426 
239 80 1 13.0525 21.7643 17.2263 
240 80 1 9.60773 23.101 14.8462 
241 81 1 13.536 16.0222 24.4172 
242 81 1 8.57313 16.7737 25.0842 
243 81 1 5.091 19.8339 26.1261 
244 82 1 13.8976 11.4954 18.3422 
245 82 1 11.586 7.56296 16.9872 
246 82 1 9.65461 4.23869 16.5811 
247 83 1 25.3663 42.1868 12.3658 
248 83 1 27.5933 37.6414 12.7055 
249 83 1 28.494 32.7682 11.405 
250 84 1 30.2566 28.8987 8.82632 
251 84 1 32.5447 31.4502 5.50292 
252 84 1 34.9002 30.0625 2.37868 
253 85 1 30.2254 22.0939 18.4847 
254 85 1 31.6461 23.5485 14.2297 
255 85 1 33.0312 23.71 9.40859 
256 86 1 17.0858 19.3716 29.3952 
257 86 1 16.5358 23.5405 32.2274 
258 86 1 15.1815 27.7345 31.5292 
259 87 1 19.8338 35.4467 26.2532 
260 87 1 17.4213 32.7287 30.3292 
261 87 1 17.9149 33.9496 34.4787 
262 88 1 33.5541 24.159 4.7907 
263 88 1 30.7017 26.7416 3.72054 
264 88 1 27.0275 29.0499 4.50098 
265 89 1 8.24893 26.7955 10.4266 
266 89 1 10.8112 23.1991 9.63107 
267 89 1 14.0469 22.6774 7.78214 
268 90 1 5.23139 12.0748 -1.25074 
269 90 1 6.57916 12.4565 1.83332 
270 90 1 6.93382 15.0348 5.34505 
271 91 1 37.3368 14.3428 27.0826 
272 91 1 39.9173 17.1563 29.7374 
273 91 1 38.1649 16.9319 33.3197 
274 92 1 9.69727 11.8995 14.9728 
275 92 1 7.57292 8.18082 12.3367 
276 92 1 5.91492 5.55998 8.80933 
277 93 1 34.6853 19.933 18.0697 
278 93 1 36.5992 23.9041 15.8717 
279 93 1 35.5038 26.6176 12.8229 
280 94 1 8.6155 20.8392 32.8076 
281 94 1 10.5367 25.6585 32.601 
282 94 1 10.587 30.9195 31.5517 
283 95 1 12.3628 6.65488 27.2291 
284 95 1 15.0924 2.92385 25.3886 
285 95 1 14.1168 -1.34528 26.1594 
286 96 1 32.6459 27.1863 18.9326 
287 96 1 32.5106 25.8951 22.1929 
288 96 1 29.4531 23.1009 24.6859 
289 97 1 3.54441 28.143 24.4488 
290 97 1 8.94185 29.0978 22.8599 
291 97 1 13.0855 28.2709 22.8471 
292 98 1 34.6368 24.2216 26.5173 
293 98 1 31.9914 24.6342 29.432 
294 98 1 30.0092 26.1559 31.8843 
295 99 1 29.8056 33.3579 1.16663 
296 99 1 25.6398 34.9245 0.35749 
297 99 1 21.5174 37.0584 -0.618554 
298 100 1 6.48989 22.9904 4.23568 
299 100 1 4.43489 26.1272 7.49304 
300 100 1 3.57145 29.4574 8.84371 
ITEM: TIMESTEP
1500
ITEM: NUMBER OF ATOMS
300
ITEM: BOX BOUNDS pp pp pp
2.7524030233437422e+00 3.5247596976656141e+01
2.7524030233437422e+00 3.5247596976656141e+01
2.7524030233437422e+00 3.5247596976656141e+01
ITEM: ATOMS id mol type xu yu zu 
1 1 1 13.135 30.1353 12.3962 
2 1 1 10.323 31.4255 8.0117 
3 1 1 8.19542 33.4952 4.44508 
4 2 1 16.3854 7.66172 13.9227 
5 2 1 19.4978 5.4564 11.7023 
6 2 1 23.9006 5.68288 10.7594 
7 3 1 12.9943 16.1272 30.8102 
8 3 1 11.4693 19.8111 33.7748 
9 3 1 13.243 24.3923 33.7721 
10 4 1 38.4525 5.82474 29.1136 
11 4 1 35.527 2.46183 29.4542 
12 4 1 34.1264 -0.852828 26.5805 
13 5 1 31.0711 31.0591 15.4877 
14 5 1 28.2482 28.9126 13.9653 
15 5 1 27.4116 24.6101 15.0703 
16 6 1 16.8726 7.18991 23.6633 
17 6 1 15.3766 3.61385 25.9003 
18 6 1 14.7691 3.05095 31.4567 
19 7 1 23.4549 18.811 24.7543 
20 7 1 19.9586 20.7093 26.0061 
21 7 1 16.4332 23.468 26.2429 
22 8 1 14.9027 28.7868 26.9202 
23 8 1 12.4115 25.8193 28.4681 
24 8 1 12.3349 20.7926 28.8831 
25 9 1 5.58188 16.9122 14.5444 
26 9 1 6.82002 13.2486 12.6221 
27 9 1 3.62841 11.0122 9.47884 
28 10 1 8.49348 29.7505 28.353 
29 10 1 4.45414 28.9633 29.7432 
30 10 1 2.70833 25.8945 31.9756 
31 11 1 19.5897 10.0713 28.2758 
32 11 1 15.7929 12.4107 27.3589 
33 11 1 13.7528 11.4327 23.353 
34 12 1 34.4064 1.32605 17.2395 
35 12 1 31.3187 1.48429 20.3847 
36 12 1 27.0851 0.628598 22.278 
37 13 1 22.1035 31.7745 25.3927 
38 13 1 24.965 32.784 27.2918 
39 13 1 29.402 34.8135 26.1659 
40 14 1 37.5089 24.7248 36.2336 
41 14 1 34.5017 21.409 35.9829 
42 14 1 30.0444 18.8793 33.9034 
43 15 1 28.9581 29.4646 26.156 
44 15 1 25.8546 27.4179 24.1179 
45 15 1 22.0316 24.0003 22.8306 
46 16 1 27.0829 9.09573 4.12851 
47 16 1 27.1946 8.6998 7.86716 
48 16 1 26.2452 12.623 9.61072 
49 17 1 22.0384 26.9198 15.0298 
50 17 1 24.592 26.7475 11.8009 
51 17 1 28.3903 25.2409 9.07484 
52 18 1 -4.7871 16.1809 13.1687 
53 18 1 -1.06592 16.4756 11.6212 
54 18 1 2.82197 20.4137 12.7002 
55 19 1 31.6778 12.8212 8.79441 
56 19 1 30.8047 13.4041 4.36958 
57 19 1 27.1393 14.199 1.66018 
58 20 1 8.52849 23.4439 26.7908 
59 20 1 11.8927 20.1956 24.2985 
60 20 1 15.5583 16.7455 23.9437 
61 21 1 36.8507 12.8184 23.203 
62 21 1 35.4708 8.86373 23.7573 
63 21 1 34.3299 3.73184 23.6747 
64 22 1 4.35152 25.32 10.3925 
65 22 1 5.14664 21.6893 8.34419 
66 22 1 7.90263 18.1217 9.71934 
67 23 1 8.25536 9.68485 25.8225 
68 23 1 6.29193 5.6555 24.1022 
69 23 1 6.87638 1.8939 24.8947 
70 24 1 7.7738 28.9748 1.06256 
71 24 1 11.6996 29.1289 4.3585 
72 24 1 13.5354 27.1182 7.39466 
73 25 1 1.34306 29.196 20.9773 
74 25 1 4.74749 31.9613 20.9411 
75 25 1 7.17791 35.0827 19.716 
76 26 1 27.8335 34.8658 11.2534 
77 26 1 24.0809 33.1979 13.1793 
78 26 1 24.5209 31.3351 16.6626 
79 27 1 32.426 12.4482 32.4934 
80 27 1 31.2695 8.65078 33.4465 
81 27 1 27.3954 5.04155 33.7146 
82 28 1 27.8218 28.9844 19.9937 
83 28 1 25.0924 25.5872 19.0854 
84 28 1 22.9549 20.9629 19.2171 
85 29 1 1.10245 20.5921 30.1911 
86 29 1 1.06364 21.5847 25.707 
87 29 1 2.08405 18.4897 21.8143 
88 30 1 22.3837 14.3375 12.4717 
89 30 1 24.0032 18.424 10.8071 
90 30 1 28.4124 20.5861 11.7651 
91 31 1 21.9039 39.2529 6.314 
92 31 1 22.5248 44.5687 6.09669 
93 31 1 20.1075 47.9675 8.61796 
94 32 1 26.9429 28.5549 31.6564 
95 32 1 23.5685 28.1938 29.1394 
96 32 1 20.3727 27.0213 27.1124 
97 33 1 24.6235 10.9987 25.7889 
98 33 1 27.5495 14.8606 24.1565 
99 33 1 29.6215 18.464 24.1919 
100 34 1 12.5857 9.17914 11.952 
101 34 1 15.242 8.58697 8.12241 
102 34 1 13.4828 8.32074 4.57888 
103 35 1 13.934 13.5962 7.98496 
104 35 1 17.2952 12.1993 5.07492 
105 35 1 18.0667 10.4949 1.12475 
106 36 1 24.5053 21.0812 28.9662 
107 36 1 22.6236 23.9616 31.6478 
108 36 1 22.4502 27.774 33.6957 
109 37 1 21.4091 9.51366 14.6713 
110 37 1 19.9069 13.4814 16.8749 
111 37 1 20.1543 18.0337 15.5156 
112 38 1 33.8943 16.421 16.8945 
113 38 1 34.8013 13.0382 13.8302 
114 38 1 35.8275 9.04413 14.3833 
115 39 1 30.0168 34.7824 4.32279 
116 39 1 26.2038 36.3443 6.36903 
117 39 1 22.6322 33.9687 7.79807 
118 40 1 3.78799 24.0168 20.9765 
119 40 1 6.33867 21.8957 22.8047 
120 40 1 7.73129 19.0817 21.4113 
121 41 1 30.6455 9.96589 12.4342 
122 41 1 30.539 12.7337 16.1049 
123 41 1 29.3889 16.2317 19.3713 
124 42 1 17.1062 28.351 15.6383 
125 42 1 16.1292 24.6443 13.4698 
126 42 1 12.2857 22.0172 11.1918 
127 43 1 15.5409 18.4337 8.28894 
128 43 1 11.2042 18.2304 5.71134 
129 43 1 6.91968 18.9186 4.70996 
130 44 1 32.6252 4.21895 32.8624 
131 44 1 30.3845 0.683951 31.5685 
132 44 1 32.0937 -3.58921 30.0229 
133 45 1 35.9943 16.0475 9.63886 
134 45 1 35.0824 16.6194 4.77673 
135 45 1 34.9657 16.9294 0.617265 
136 46 1 34.8545 0.175768 1.96474 
137 46 1 37.5878 4.6098 1.62299 
138 46 1 36.3118 8.32901 0.135501 
139 47 1 19.0798 10.9304 9.56812 
140 47 1 16.5785 12.7456 12.6971 
141 47 1 15.623 16.9965 14.3503 
142 48 1 14.2963 35.8144 10.6071 
143 48 1 17.6746 36.0067 7.05393 
144 48 1 17.7164 38.1407 3.47683 
145 49 1 31.4087 5.98189 9.17293 
146 49 1 32.95 8.60484 5.95781 
147 49 1 35.4855 11.4728 3.91973 
148 50 1 15.6007 33.547 15.0771 
149 50 1 19.6686 32.9894 17.7578 
150 50 1 21.8859 29.6897 20.5298 
151 51 1 18.6761 11.5226 22.9261 
152 51 1 20.0417 14.2448 25.5447 
153 51 1 23.671 15.1261 29.1178 
154 52 1 23.3875 13.7406 20.8954 
155 52 1 24.9774 16.6294 17.2407 
156 52 1 26.3996 19.6808 16.242 
157 53 1 19.326 2.54832 22.2359 
158 53 1 23.1423 3.08559 20.4382 
159 53 1 26.9648 5.70362 20.0947 
160 54 1 9.64895 12.548 31.0697 
161 54 1 8.7409 8.13154 32.2258 
162 54 1 11.0276 5.3056 33.6825 
163 55 1 3.8022 7.274 19.1506 
164 55 1 4.85744 11.1918 18.1418 
165 55 1 6.22921 14.8874 19.4491 
166 56 1 18.9626 17.1839 20.7575 
167 56 1 17.4489 21.1339 20.7714 
168 56 1 16.2363 25.2994 20.9716 
169 57 1 24.4068 22.876 4.64031 
170 57 1 26.8124 21.5076 6.89203 
171 57 1 31.5538 20.6296 7.89779 
172 58 1 28.9934 18.7111 29.0308 
173 58 1 28.9448 14.536 29.5808 
174 58 1 27.5291 10.5563 30.1802 
175 59 1 8.54215 9.08609 4.79166 
176 59 1 5.33429 6.20264 5.93845 
177 59 1 2.50383 3.09945 6.05762 
178 60 1 13.0602 34.8951 5.27763 
179 60 1 15.4806 31.6399 8.24565 
180 60 1 18.85 32.3169 10.9472 
181 61 1 15.466 20.793 3.72409 
182 61 1 15.7711 16.6179 3.03801 
183 61 1 12.7451 13.2749 2.94244 
184 62 1 23.1597 4.77585 16.0623 
185 62 1 19.7061 5.94096 18.2132 
186 62 1 15.351 3.97162 19.671 
187 63 1 23.3731 22.5607 13.6234 
188 63 1 22.5195 23.141 9.32974 
189 63 1 22.3914 27.5901 6.95258 
190 64 1 15.9114 31.6592 3.12835 
191 64 1 17.9127 28.885 5.1266 
192 64 1 19.2592 24.5892 3.13055 
193 65 1 28.7255 16.6416 7.22251 
194 65 1 24.7335 16.6898 5.10242 
195 65 1 20.6736 19.0882 5.13478 
196 66 1 12.2872 6.84883 22.8298 
197 66 1 11.547 1.97516 22.715 
198 66 1 10.6931 -1.49068 23.3745 
199 67 1 32.3469 13.2271 21.9837 
200 67 1 31.9357 9.7087 20.3516 
201 67 1 30.8456 6.67866 23.3055 
202 68 1 7.84482 25.2511 18.6814 
203 68 1 7.76385 29.1794 18.461 
204 68 1 10.3249 32.8432 16.435 
205 69 1 31.9367 5.74306 17.417 
206 69 1 32.2429 4.21888 13.6017 
207 69 1 32.4642 1.04743 9.90909 
208 70 1 22.5026 8.13109 22.6452 
209 70 1 25.4368 6.3723 25.0387 
210 70 1 25.7657 6.31877 29.0743 
211 71 1 31.4617 6.84279 28.3493 
212 71 1 34.8727 10.4647 28.5712 
213 71 1 34.0115 15.5366 26.1546 
214 72 1 30.3905 11.0731 26.2224 
215 72 1 27.5244 10.3607 22.2774 
216 72 1 26.8039 10.5608 18.6042 
217 73 1 19.235 19.817 10.7861 
218 73 1 17.0441 23.5191 8.55589 
219 73 1 17.869 27.3772 9.8258 
220 74 1 19.3589 23.2795 17.0176 
221 74 1 14.6244 21.2016 16.7956 
222 74 1 12.1759 22.4413 19.6409 
223 75 1 12.0531 26.0217 15.8276 
224 75 1 12.8865 28.9284 19.5791 
225 75 1 15.7192 31.2872 22.4557 
226 76 1 10.1017 5.57194 7.51879 
227 76 1 8.91091 3.36798 11.6852 
228 76 1 5.8715 4.21503 15.3754 
229 77 1 11.1489 15.8142 12.1303 
230 77 1 9.80493 13.8924 16.1343 
231 77 1 9.64335 10.9348 20.7757 
232 78 1 21.2502 14.7844 34.4181 
233 78 1 23.147 11.2166 33.083 
234 78 1 21.6552 6.97164 32.5142 
235 79 1 25.06 19.4038 33.5127 
236 79 1 21.0599 18.9039 31.8715 
237 79 1 18.241 15.1265 30.4969 
238 80 1 13.1163 17.5869 19.6111 
239 80 1 10.0715 19.1986 16.0679 
240 80 1 7.9454 22.1045 13.3737 
241 81 1 10.268 15.3388 23.1083 
242 81 1 9.25299 16.7322 26.3917 
243 81 1 5.11608 19.2995 27.5558 
244 82 1 14.9675 13.1728 18.8996 
245 82 1 14.6092 8.73296 18.21 
246 82 1 11.8431 5.68457 15.8538 
247 83 1 26.0205 42.9025 13.709 
248 83 1 27.4809 39.2313 14.3919 
249 83 1 27.8144 35.25 16.4293 
250 84 1 25.9229 30.7599 8.90021 
251 84 1 29.9206 30.1722 6.88684 
252 84 1 31.7144 28.5873 2.48791 
253 85 1 31.4473 21.5417 15.6776 
254 85 1 31.9816 24.2712 12.3559 
255 85 1 32.3867 28.6438 11.024 
256 86 1 16.4661 20.169 30.6951 
257 86 1 17.7376 24.1392 31.1093 
258 86 1 16.6963 27.129 31.4276 
259 87 1 17.6091 32.7631 28.4478 
260 87 1 20.0778 31.4357 31.5459 
261 87 1 20.6413 33.975 35.8883 
262 88 1 33.869 26.2551 6.13457 
263 88 1 30.1762 24.3991 4.77209 
264 88 1 26.8418 27.4743 4.20804 
265 89 1 8.25052 28.0206 12.5159 
266 89 1 9.11627 25.3053 8.81235 
267 89 1 10.0296 23.4887 5.09961 
268 90 1 4.99143 13.1582 -0.594481 
269 90 1 7.74803 14.209 3.07058 
270 90 1 7.50426 13.6109 7.70353 
271 91 1 40.8941 17.23 31.093 
272 91 1 38.4879 20.9761 32.5729 
273 91 1 39.888 24.9134 31.2793 
274 92 1 7.97591 9.02458 15.1205 
275 92 1 6.94103 7.68446 11.3155 
276 92 1 4.17001 4.56349 10.5086 
277 93 1 36.052 20.6705 17.4418 
278 93 1 36.3812 24.6734 15.751 
279 93 1 35.9721 28.6978 15.6348 