LAMMPS (3 Mar 2020)
OMP_NUM_THREADS environment is not set. Defaulting to 1 thread. (src/comm.cpp:94)
  using 1 OpenMP thread(s) per MPI task
###################################################
### System ########################################

include           system.in
units             real

atom_style        full
bond_style        harmonic
angle_style       cosine/squared
pair_style        lj/gromacs 9.0 12.0
special_bonds     lj 0.0 1.0 1.0
neighbor          2.5 bin
neigh_modify      delay 1 every 1 check yes

read_data         system.data
  orthogonal box = (0 0 0) to (38 38 38)
  1 by 1 by 1 MPI processor grid
  reading atoms ...
  300 atoms
  scanning bonds ...
  1 = max bonds/atom
  scanning angles ...
  1 = max angles/atom
  reading bonds ...
  200 bonds
  reading angles ...
  100 angles
  2 = max # of 1-2 neighbors
  1 = max # of 1-3 neighbors
  1 = max # of 1-4 neighbors
  2 = max # of special neighbors
  special bonds CPU = 0.000116749 secs
  read_data CPU = 0.00267974 secs

variable          lx equal lx
variable          lx0 equal ${lx}
variable          lx0 equal 38
variable          lx delete
variable          ly equal ly
variable          ly0 equal ${ly}
variable          ly0 equal 38
variable          ly delete
variable          lz equal lz
variable          lz0 equal ${lz}
variable          lz0 equal 38
variable          lz delete
variable          vol equal vol
variable          vol0 equal ${vol}
variable          vol0 equal 54872
variable          vol delete


###################################################
### Minimize energy ###############################

thermo            0
min_style         cg
minimize          1.0e-4 1.0e-6 100 1000
WARNING: Using 'neigh_modify every 1 delay 0 check yes' setting during minimization (src/min.cpp:190)
Neighbor list info ...
  update every 1 steps, delay 0 steps, check yes
  max neighbors/atom: 2000, page size: 100000
  master list distance cutoff = 14.5
  ghost atom cutoff = 14.5
  binsize = 7.25, bins = 6 6 6
  1 neighbor lists, perpetual/occasional/extra = 1 0 0
  (1) pair lj/gromacs, perpetual
      attributes: half, newton on
      pair build: half/bin/newton
      stencil: half/bin/3d/newton
      bin: standard
Per MPI rank memory allocation (min/avg/max) = 7.63 | 7.63 | 7.63 Mbytes
Step Temp E_pair E_mol TotEng Press 
       0            0    235994.01 4.4181776e-09    235994.01    1195885.5 
     100            0   -998.29068    21.592596   -976.69809   -668.83524 
Loop time of 0.0288731 on 1 procs for 100 steps with 300 atoms

100.0% CPU use with 1 MPI tasks x 1 OpenMP threads

Minimization stats:
  Stopping criterion = max iterations
  Energy initial, next-to-last, final = 
         235994.009891     -974.533101213     -976.698086978
  Force two-norm initial, final = 1.94466e+06 5.76602
  Force max component initial, final = 1.36015e+06 1.97092
  Final line search alpha, max atom move = 0.118091 0.232749
  Iterations, force evaluations = 100 100

MPI task timing breakdown:
Section |  min time  |  avg time  |  max time  |%varavg| %total
---------------------------------------------------------------
Pair    | 0.022696   | 0.022696   | 0.022696   |   0.0 | 78.61
Bond    | 0.00085528 | 0.00085528 | 0.00085528 |   0.0 |  2.96
Neigh   | 0.0035311  | 0.0035311  | 0.0035311  |   0.0 | 12.23
Comm    | 0.00060729 | 0.00060729 | 0.00060729 |   0.0 |  2.10
Output  | 1.109e-05  | 1.109e-05  | 1.109e-05  |   0.0 |  0.04
Modify  | 0          | 0          | 0          |   0.0 |  0.00
Other   |            | 0.001172   |            |       |  4.06

Nlocal:    300 ave 300 max 300 min
Histogram: 1 0 0 0 0 0 0 0 0 0
Nghost:    1187 ave 1187 max 1187 min
Histogram: 1 0 0 0 0 0 0 0 0 0
Neighs:    11051 ave 11051 max 11051 min
Histogram: 1 0 0 0 0 0 0 0 0 0

Total # of neighbors = 11051
Ave neighs/atom = 36.8367
Ave special neighs/atom = 2
Neighbor list builds = 7
Dangerous builds = 0


###################################################
### Analysis ######################################

# Structural analysis
compute           MOLS all chunk/atom molecule
compute           RGMOLS all gyration/chunk MOLS
variable          RG equal ave(c_RGMOLS)
fix               tRG all ave/time 1 1 500 c_RGMOLS[*] mode vector ave one file gyration.time

# Thermodynamics
thermo_style      custom time etotal ke pe ebond eangle evdwl temp press vol density v_RG
thermo            50

# Trajectory
dump              TRJ all custom 1000 dump.lammpstrj id mol type xu yu zu
dump_modify       TRJ sort id


###################################################
### Equilibration NPT Dynamics ####################

velocity          all create 293.0 2934

timestep          20.0

fix               NPT all npt temp 293.0 293.0 $(100.0*dt) iso 1.0 1.0 $(1000.0*dt)
fix               NPT all npt temp 293.0 293.0 2000 iso 1.0 1.0 $(1000.0*dt)
fix               NPT all npt temp 293.0 293.0 2000 iso 1.0 1.0 20000
fix               ZMOM all momentum 5 linear 1 1 1 angular rescale

run               20000
Per MPI rank memory allocation (min/avg/max) = 6.63 | 6.63 | 6.63 Mbytes
Time TotEng KinEng PotEng E_bond E_angle E_vdwl Temp Press Volume Density v_RG 
           0   -715.55826    261.13983   -976.69809    8.6497248    12.942871   -998.29068          293    -451.2872        54872   0.47983722    3.7416774 
        1000   -703.66772    169.63457   -873.30229     40.36668    24.154762   -937.82373    190.33071   -507.71291    54604.679    0.4821863     3.692639 
        2000   -687.99662    207.95277   -895.94939    49.926491    24.099471   -969.97535    233.32389    -100.7017    53632.502   0.49092672    3.6604148 
        3000   -667.40277    226.70681   -894.10958    59.672356    25.482426   -979.26436    254.36601   -93.452256     52455.27   0.50194438    3.6360973 
        4000   -647.36541    240.76143   -888.12684    50.815143    31.962128   -970.90411    270.13535   -193.49166    51207.932   0.51417089    3.6488116 
        5000   -626.88721    254.87709    -881.7643    72.694205    27.324403   -981.78291    285.97319   -76.903294    49956.677   0.52704923    3.6269749 
        6000   -609.86909    281.50433   -891.37342    66.599767    27.880011    -985.8532    315.84906   -154.19042    48849.563   0.53899413    3.6315286 
        7000   -599.73036    259.64508   -859.37544    71.973402    31.932781   -963.28162    291.32289    -106.6639    47873.762   0.54998034    3.5862555 
        8000   -593.08336    280.86827   -873.95164    66.121705    32.089201   -972.16254     315.1354   -385.09364    46968.126   0.56058502    3.6302527 
        9000   -593.48294    279.16121   -872.64415    67.478317    28.267519   -968.38999    313.22007   -90.722832    45964.493   0.57282538    3.6270738 
       10000   -602.17152    282.17863   -884.35015    77.708595    36.155762   -998.21451    316.60562   -129.20047     45001.43   0.58508425    3.5602405 
       11000   -622.07051    273.38653   -895.45704    75.588978    36.683134   -1007.7292    306.74086   -322.08828     44103.72   0.59699335    3.6013296 
       12000   -644.47714    262.31073   -906.78788    71.449264    39.479589   -1017.7167    294.31376   -254.69758    43126.294   0.61052378    3.5840293 
       13000   -662.69382    272.62456   -935.31838     69.86185    36.710505   -1041.8907    305.88592   -312.02652    42096.316   0.62546157    3.5493406 
       14000   -677.25267    255.65223    -932.9049    69.706336    35.347244   -1037.9585     286.8429   -10.037379    41089.366   0.64078934    3.5615314 
       15000   -692.65555    266.87342   -959.52896    68.678364    30.468555   -1058.6759    299.43311   -76.880369    40188.974   0.65514556    3.5958121 
       16000   -709.74074    262.15052   -971.89125    68.444167    32.467581    -1072.803      294.134   -273.19453    39381.423    0.6685799    3.6008142 
       17000   -725.27073    243.14059   -968.41132    75.206846     33.09694   -1076.7151    272.80478   -215.73472    38537.662   0.68321809     3.569127 
       18000   -739.35113    259.65084   -999.00197    70.289731    28.472196   -1097.7639    291.32935   -339.85147    37660.955   0.69912268    3.6117474 
       19000   -751.35744    263.39834   -1014.7558    65.562772    32.887214   -1113.2058    295.53406    4.5193663     36783.66   0.71579686    3.5312885 
       20000   -761.58961    264.58134   -1026.1709    85.076544     30.54909   -1141.7966    296.86139    -179.8173    36047.151   0.73042188    3.5366165 
       21000   -772.29717     267.2695   -1039.5667    86.108941     22.61483   -1148.2904    299.87752    13.784072        35445   0.74283054    3.5523289 
       22000   -787.01481    262.29462   -1049.3094    75.532607    26.427156   -1151.2692    294.29569    130.46219    34997.333   0.75233242    3.5426632 
       23000   -798.75912    277.75461   -1076.5137    84.504488    27.916909   -1188.9351    311.64186   -128.87881    34656.173   0.75973847    3.5707058 
       24000   -807.05259    277.35191   -1084.4045    79.812702    22.779587   -1186.9968    311.19003    62.658671    34393.694   0.76553649    3.5538967 
       25000   -816.92752    253.72572   -1070.6532    76.095619    26.909294   -1173.6581    284.68134    313.47543    34258.978   0.76854681    3.5574424 
       26000   -824.83365    252.21209   -1077.0457    87.069727    30.584008   -1194.6995    282.98304    24.579546    34239.516   0.76898366    3.5507961 
       27000   -831.00368     265.7454   -1096.7491    61.899926    30.977019    -1189.626    298.16747    79.089912    34248.018   0.76879274     3.550997 
       28000   -835.00307    262.98452   -1097.9876    61.606681    30.984903   -1190.5792    295.06975    120.13441    34268.915   0.76832394    3.5329241 
       29000   -836.95123    248.12858   -1085.0798      74.7635    32.236076   -1192.0794    278.40133     78.08316    34304.409   0.76752898    3.5348928 
       30000   -834.12823     266.9832   -1101.1114    73.125082    30.639216   -1204.8757    299.55629    -126.9462    34339.139    0.7667527    3.5489113 
       31000   -824.19776    255.12075   -1079.3185    78.566555     27.82696    -1185.712    286.24658    108.93147    34341.316   0.76670412    3.5231809 
       32000   -804.44235     272.8953   -1077.3377    83.400694    27.060493   -1187.7988     306.1897    52.357258    34404.522   0.76529556    3.5751766 
       33000   -792.65774    267.99431    -1060.652    83.303758    23.909795   -1167.8656    300.69076     208.0422    34510.497   0.76294549    3.5735451 
       34000   -793.24184    275.66141   -1068.9032    80.548715    37.188273   -1186.6402    309.29328    -101.6154    34652.458   0.75981992    3.5366068 
       35000   -800.83432     272.2675   -1073.1018      72.3141    27.201778   -1172.6177     305.4853   -5.9145739    34776.966   0.75709963    3.5407159 
       36000   -810.71994    258.02132   -1068.7413    78.205854    29.242287   -1176.1894    289.50103   -21.298108    34915.434   0.75409712    3.5290369 
       37000    -817.8604    260.64214   -1078.5025    81.370312    23.025991   -1182.8988    292.44159   -299.53875    35007.692   0.75210979    3.5694812 
       38000   -821.21924    234.56724   -1055.7865    74.177901    31.977947   -1161.9423    263.18544   -49.036131    34991.895   0.75244934    3.5438856 
       39000    -820.6428    269.09799   -1089.7408    62.599039    25.576945   -1177.9168    301.92909   -49.362894    34873.508   0.75500372    3.5559602 
       40000   -818.79337    258.71522   -1077.5086    74.631332     30.15732   -1182.2972    290.27958   -56.712518    34703.303   0.75870668    3.5447612 
       41000   -817.12287    254.88411    -1072.007    74.813191      36.9985   -1183.8187    285.98106    28.657538    34525.506   0.76261383    3.4813579 
       42000   -813.30632    264.56721   -1077.8735    74.190707    32.285921   -1184.3502    296.84553    65.535243     34396.55   0.76547293    3.5402543 
       43000   -811.77965    285.68243   -1097.4621    73.815436    27.590613   -1198.8681    320.53691   -16.271105     34348.91   0.76653459    3.5661506 
       44000    -814.8894    248.75112   -1063.6405    82.883933    35.208949   -1181.7334    279.09982    48.385628    34391.362    0.7655884    3.5408315 
       45000    -818.5153    266.16647   -1084.6818    69.950795    26.334672   -1180.9672    298.63992    109.35987    34481.295   0.76359163     3.538675 
       46000   -827.24819    252.17699   -1079.4252    81.596428    30.903496   -1191.9251    282.94365   -117.28006    34610.992   0.76073024     3.520307 
       47000   -844.01747    234.09568   -1078.1131    77.407104    34.131698   -1189.6519    262.65635   -175.44479    34709.693     0.758567    3.5013803 
       48000   -853.92219    234.91085    -1088.833    70.680567    26.954904   -1186.4685    263.57098   -182.13295    34693.538   0.75892023    3.5655308 
       49000   -853.84555    228.06553   -1081.9111    72.878634    25.531208   -1180.3209     255.8905    24.894995    34556.963   0.76191963    3.5671002 
       50000   -845.06959    256.48995   -1101.5595    77.028284    28.109275   -1206.6971    287.78282   -169.45699     34357.57    0.7663414    3.5906393 
       51000   -831.64032    265.65572    -1097.296      75.4953    29.040723   -1201.8321    298.06685    39.853435    34103.226   0.77205681    3.5387052 
       52000   -819.01591    272.03325   -1091.0492    82.650867    27.709262   -1201.4093    305.22247    167.52025    33931.047   0.77597452    3.5264215 
       53000   -816.20953    273.24858   -1089.4581    77.063352    22.126562    -1188.648    306.58607    338.41023     33911.97   0.77641105    3.5749115 
       54000   -821.28802    273.42082   -1094.7088    85.390087    33.955006   -1214.0539    306.77933   -52.821874    34058.602   0.77306836    3.5169584 
       55000   -828.88422    260.64988   -1089.5341    81.725544    25.544273   -1196.8039    292.45028   -16.033579    34243.081   0.76890359    3.5476492 
       56000   -836.06503     264.3572   -1100.4222    71.592797    21.541398   -1193.5564    296.60991   -20.811291    34412.959   0.76510794    3.5649733 
       57000   -840.22188    251.48556   -1091.7074     77.67372     27.27389    -1196.655    282.16787   -173.33169    34576.984   0.76147845    3.5533827 
       58000   -838.13443    247.91893   -1086.0534    76.882393    32.787026   -1195.7228    278.16609   -236.97846    34646.135   0.75995859    3.5355399 
       59000   -830.18244     257.6981   -1087.8805    71.087134    41.058899   -1200.0266    289.13837   -266.81675    34597.359      0.76103    3.5391682 
       60000   -818.90889    273.20056   -1092.1094    62.073951    34.879792   -1189.0632    306.53219    92.777033    34453.502    0.7642076    3.5580021 
       61000   -810.27528    267.82101   -1078.0963    76.189733    31.241431   -1185.5275    300.49632    94.072645    34372.632   0.76600558    3.6028717 
       62000   -809.18055    283.29638   -1092.4769    63.459962    29.433107     -1185.37    317.85975    136.36307    34341.179   0.76670716    3.5532162 
       63000   -812.83182    256.96643   -1069.7983     80.03595    26.670731   -1176.5049    288.31744    196.57647    34414.469   0.76507436    3.5109938 
       64000   -816.52829    251.17538   -1067.7037    92.153214    32.772139    -1192.629    281.81984   -142.28969    34551.253   0.76204553    3.5097086 
       65000   -817.73255    254.17757   -1071.9101    71.577416    35.558574   -1179.0461    285.18832   -79.539926    34653.977   0.75978662    3.5402774 
       66000   -817.22809    254.97915   -1072.2072    71.103053    34.909072   -1178.2194     286.0877   -60.407678    34713.586   0.75848195    3.4946518 
       67000   -802.37367     268.5229   -1070.8966    81.562438    25.383472   -1177.8425    301.28384     24.05833    34724.426   0.75824516    3.5126284 
       68000   -775.99257    281.77223   -1057.7648    80.279932    24.041323   -1162.0861    316.14965    151.47832    34774.601   0.75715111    3.5732851 
       69000   -767.77711    285.81878   -1053.5959    79.384892    31.168254    -1164.149    320.68989    64.556171    34952.689   0.75329335    3.5730183 
       70000   -769.94705    268.38676   -1038.3338     80.72067    36.556097   -1155.6106    301.13109   -66.836167    35196.999   0.74806457    3.5212817 
       71000   -778.56368    262.47342   -1041.0371    77.245573    26.614764   -1144.8974    294.49629   -97.882448    35423.216   0.74328734    3.5651712 
       72000   -790.67683    262.73452   -1053.4113    65.630674    30.437058   -1149.4791    294.78925   -197.07292    35570.849    0.7402024    3.5606332 
       73000   -799.27654    245.90545    -1045.182    77.081365    25.193861   -1147.4572    275.90697   -152.58705     35602.05   0.73955371    3.5801214 
       74000   -803.81202    239.75613   -1043.5682    67.496763    40.045472   -1151.1104     269.0074   -259.52374    35457.401   0.74257073    3.5787008 
       75000   -803.78144    259.26687   -1063.0483    67.351106    30.576408   -1160.9758    290.89853   -66.673539    35161.504   0.74881974    3.5371553 
       76000   -799.79332    263.69602   -1063.4893    68.071254    38.927178   -1170.4878    295.86806    11.789285    34825.397   0.75604675    3.5478812 
       77000   -793.49389    263.18646   -1056.6804    79.610289    30.820234   -1167.1109    295.29633    230.91468    34487.385   0.76345678    3.5228464 
       78000   -789.31317    280.97879    -1070.292    86.284028    34.874839   -1191.4508     315.2594     135.9705    34261.315   0.76849437    3.5178028 
       79000   -796.05052    279.18719   -1075.2377     78.20527    40.101707   -1193.5447    313.24922    100.10563    34193.315   0.77002268    3.5471352 
       80000   -815.67538    265.72458      -1081.4    78.826806    32.655339   -1192.8821    298.14411    161.82856    34239.276   0.76898904    3.5195388 
       81000   -830.67788    271.88076   -1102.5586    60.564792    34.754688   -1197.8781    305.05137     57.73382    34394.955   0.76550844    3.5103476 
       82000   -836.22772    256.82315   -1093.0509    62.980313    28.510401   -1184.5416    288.15667   -31.756484    34606.672    0.7608252      3.56544 
       83000   -835.77406    256.29852   -1092.0726    63.010601    32.750917   -1187.8341    287.56803   -156.88371    34778.421   0.75706795    3.6032576 
       84000   -831.30694    267.33716   -1098.6441    62.447487    29.036593   -1190.1282    299.95344   -182.59281    34817.619   0.75621564    3.5410972 
       85000   -823.00757    250.01717   -1073.0247    78.736084    31.169535   -1182.9304    280.52033   -119.31892     34783.71   0.75695284    3.5515198 
       86000   -810.13169    247.60267   -1057.7344    80.183408    38.284317   -1176.2021    277.81125    -60.12564    34719.008   0.75836349    3.4790814 
       87000   -796.71494    244.86046   -1041.5754    78.089402    35.711613   -1155.3764    274.73448     301.7415    34661.815   0.75961481    3.5094768 
       88000   -791.16845    274.89262   -1066.0611    68.236793    29.294402   -1163.5923    308.43069     174.8453    34702.797   0.75871774    3.5242193 
       89000   -792.09581    285.60731   -1077.7031    67.442579    24.698928   -1169.8446    320.45262    18.535318    34815.649   0.75625843    3.5630665 
       90000   -796.76961    268.19605   -1064.9657     72.80553    27.514413   -1165.2856    300.91711   -13.679417    34974.308   0.75282771    3.5521428 
       91000   -800.25472    251.41961   -1051.6743    78.205981    28.454712    -1158.335    282.09388   -78.466853    35143.181   0.74921016    3.5590451 
       92000    -801.9989    253.08154   -1055.0804    71.652802    30.344011   -1157.0773    283.95857   -53.710067    35213.128   0.74772193    3.5616539 
       93000   -804.01088    256.61555   -1060.6264    81.153125    27.675891   -1169.4554    287.92374    -271.3723    35167.944   0.74868262    3.5751019 
       94000   -806.64931    270.58355   -1077.2329    72.146869    28.761965   -1178.1417     303.5959    -174.9601    34978.252   0.75274282    3.5699396 
       95000   -813.73234     253.4884   -1067.2207    80.219194    28.441284   -1175.8812    284.41506   -44.475056    34718.206   0.75838101    3.5509407 
       96000   -830.59268    263.53199   -1094.1247    73.906977    27.211646   -1195.2433    295.68401    21.307025    34424.904   0.76484245    3.5355184 
       97000    -844.7428    247.41591   -1092.1587    76.014747    22.169672   -1190.3431    277.60171    138.07745    34182.723   0.77026129     3.553528 
       98000   -851.67986    241.09416    -1092.774    63.657892    31.977877   -1188.4098    270.50867    278.40624    33993.805   0.77454195    3.5251439 
       99000   -854.18493     263.6343   -1117.8192    72.831704    26.401455   -1217.0524    295.79881    69.913737    33882.596   0.77708415    3.5571226 
      100000   -854.24497    264.42621   -1118.6712    72.919691    29.376945   -1220.9678    296.68733    15.403989    33837.029   0.77813062    3.5396033 
      101000   -852.61284    259.61907   -1112.2319    86.213116    32.559954    -1231.005    291.29371   -183.07504    33865.701   0.77747182    3.5232038 
      102000   -845.85938    253.54388   -1099.4033    69.037047    27.435008   -1195.8753    284.47732    216.10999    33879.546    0.7771541    3.6087333 
      103000   -834.41413    274.72062   -1109.1347    73.864568    23.624216   -1206.6235    308.23771     124.6211    33937.599    0.7758247    3.5948523 
      104000   -824.05288    270.97093   -1095.0238    71.261103    34.462413   -1200.7473    304.03054    105.20812    34095.513   0.77223146    3.5338679 
      105000   -816.89567    274.88034    -1091.776    67.965962     31.40645   -1191.1484    308.41691    52.997812    34303.729    0.7675442    3.5517834 
      106000   -810.78177    266.23584   -1077.0176    74.011674    35.561637   -1186.5909    298.71775   -28.105943    34520.624   0.76272168    3.5057906 
      107000    -805.8385    268.72931   -1074.5678    81.364402    30.308501   -1186.2407    301.51543   -133.56413    34724.122    0.7582518    3.5354426 
      108000   -802.11925    270.67213   -1072.7914    75.031758    30.420131   -1178.2433    303.69529   -281.25972    34895.705   0.75452345    3.5762769 
      109000   -799.62439    266.19028   -1065.8147    80.566719    24.582527   -1170.9639    298.66663   -99.566562    34974.502   0.75282353    3.5183463 
      110000   -799.60789    272.82456   -1072.4324    65.119862    26.785302   -1164.3376    306.11032    13.723385    35016.634   0.75191773    3.5608162 
      111000   -805.29351    257.89336   -1063.1869    79.158886    25.483745   -1167.8295    289.35745   -92.547414    35010.133   0.75205735    3.5961359 
      112000   -815.01907    262.97513   -1077.9942    65.089455    27.326879   -1170.4105    295.05922    43.450786     34949.73   0.75335713    3.5675109 
      113000   -826.35257    260.17797   -1086.5305    69.127289    32.571975   -1188.2298     291.9208   -227.69191     34848.97   0.75553532    3.5101358 
      114000   -832.61535    244.66365    -1077.279    70.815676    31.914297    -1180.009    274.51366   -102.55017    34658.667   0.75968381    3.5462801 
      115000   -833.47235    258.28424   -1091.7566     60.59543    28.470681   -1180.8227    289.79602    96.323015    34430.311   0.76472233    3.5873916 
      116000   -831.15461    261.43492   -1092.5895    68.392607    36.241048   -1197.2232     293.3311    13.922909    34227.956   0.76924337    3.5409337 
      117000   -821.95696    258.51075   -1080.4677    83.727504    29.705755    -1193.901    290.05016    196.96513    34052.656   0.77320336    3.5362324 
      118000    -806.7792    275.77399   -1082.5532    84.782588    29.949678   -1197.2855     309.4196    292.23276    34003.071   0.77433087    3.5175643 
      119000   -796.12173    269.93744   -1066.0592    77.105447    26.247344    -1169.412    302.87096    429.90475    34150.518   0.77098766    3.5170842 
      120000      -795.32    280.94688   -1076.2669    84.594599    37.007286   -1197.8688     315.2236   -82.377116    34522.633    0.7626773    3.5026049 
      121000   -798.40247    264.79431   -1063.1968    75.931996       27.859   -1166.9878    297.10035   -24.910162     34961.97   0.75309337    3.5691186 
      122000   -807.36749    254.24615   -1061.6136    60.204347    30.992293   -1152.8103    285.26527   -18.175389    35356.482   0.74469027    3.5679119 
      123000   -819.87851    230.23067   -1050.1092    66.938024    28.146801    -1145.194     258.3198   -166.53897     35613.27    0.7393207    3.5526846 
      124000   -828.57897    238.51148   -1067.0905    53.548391    26.347913   -1146.9868     267.6109   -158.63563    35658.265    0.7383878    3.6100725 
      125000    -831.7261    240.94775   -1072.6739    56.941108    27.283193   -1156.8982     270.3444    -333.2314    35479.751   0.74210296     3.590674 
      126000   -824.17992    254.94215   -1079.1221    70.590632     24.72309   -1174.4358    286.04618    -268.3262    35080.935   0.75053951    3.6010451 
      127000   -805.78377    264.53466   -1070.3184    74.548526    29.423894   -1174.2908    296.80901    104.89758    34602.038   0.76092709    3.5605115 
      128000   -795.60907    286.38313   -1081.9922    78.560588     26.92644   -1187.4792     321.3231    200.54497    34225.348   0.76930198    3.5474507 
      129000   -798.51849    281.90699   -1080.4255    82.950661    37.434554   -1200.8107    316.30085    168.45207    34003.718   0.77431615    3.5187067 
      130000   -808.64986    263.84227   -1072.4921    85.458323    30.611756   -1188.5622    296.03216    318.41703    33951.249    0.7755128    3.5562815 
      131000   -818.28149    268.33969   -1086.6212    90.689525    33.572614   -1210.8833    301.07827   -24.092981    34072.284   0.77275793    3.5191837 
      132000   -827.32499    247.14867   -1074.4737    73.020884    33.353578   -1180.8481    277.30186    191.99129      34243.2   0.76890092    3.5668796 
      133000   -831.59763    268.36751   -1099.9651    62.442043    34.579987   -1196.9872    301.10949   -92.792877    34422.556   0.76489463    3.5311403 
      134000   -833.31452    251.82216   -1085.1367    71.147897     28.96789   -1185.2525    282.54553    2.0769204    34544.897   0.76218575     3.553236 
      135000   -832.85028    246.24213   -1079.0924    67.177126    27.053881   -1173.3234    276.28472    58.719668    34614.093   0.76066209    3.5709382 
      136000   -826.13298    269.65253   -1095.7855    58.716362    36.555785   -1191.0577    302.55129   -98.625385    34659.869   0.75965745    3.5546384 
      137000    -812.9936     257.3974    -1070.391    85.038826    34.072283   -1189.5021    288.80098   -136.29855    34656.302   0.75973565    3.5623185 
      138000   -796.44281    271.26956   -1067.7124    89.092888    31.872271   -1188.6775    304.36561   -125.93639    34614.843   0.76064561    3.5525533 
      139000   -789.10521    270.79302   -1059.8982    89.861977    27.927121   -1177.6873    303.83093    95.426702    34590.653   0.76117754    3.5458159 
      140000   -793.06486    277.43772   -1070.5026    78.882375    30.056225   -1179.4412    311.28631   -44.306795    34641.222   0.76006638    3.5409258 
      141000   -799.43598    272.88974   -1072.3257    70.938616    27.648092   -1170.9124    306.18345    -29.58717    34737.797    0.7579533    3.5875609 
      142000   -806.10951    257.66546    -1063.775    63.963669    29.699396    -1157.438    289.10175    111.47456    34817.637   0.75621525    3.6011585 
      143000   -809.92071    257.03005   -1066.9508    82.736386    22.654857    -1172.342    288.38882   -111.89798     34882.39   0.75481147    3.5672538 
      144000   -813.18349    257.22562   -1070.4091    70.731018     22.84568   -1163.9858    288.60825   -13.821935    34890.597   0.75463392    3.5976468 
      145000   -817.57405    259.28571   -1076.8598    64.708603    27.571414   -1169.1398    290.91967    -11.90214    34816.438   0.75624129    3.5792422 
      146000   -823.21069    261.30097   -1084.5117    77.257153    25.821143     -1187.59     293.1808   -151.57203    34690.089   0.75899569    3.5389903 
      147000   -828.43385    257.92735   -1086.3612    68.172129    29.368293   -1183.9016    289.39558    42.980768    34539.652   0.76230148    3.5385654 
      148000   -837.29758    247.73351   -1085.0311     82.60359    26.945088   -1194.5798    277.95806    8.8470946    34403.657    0.7653148    3.5559772 
      149000   -849.69807    266.60774   -1116.3058    73.150439    22.317281   -1211.7735    299.13502   -203.20537    34282.546   0.76801846    3.5922182 
      150000   -862.35993    238.68458   -1101.0445    89.275052    29.154498   -1219.4741    267.80511   -271.03176    34131.573    0.7714156    3.5262465 
      151000   -869.44968    266.77869   -1136.2284    53.319798    23.375391   -1212.9236    299.32683    63.740733     33911.43   0.77642342    3.5871107 
      152000   -871.37098    264.31338   -1135.6844     78.46883    29.411458   -1243.5646    296.56074   -182.31196    33741.864   0.78032523    3.5062908 
      153000    -870.0345    254.40452    -1124.439    74.305674    29.624005   -1228.3687    285.44296     70.98699    33605.747   0.78348588    3.5120529 
      154000    -860.6379    262.72819   -1123.3661    75.907526    27.747754   -1227.0214    294.78215    118.66625    33560.737   0.78453665    3.4696236 
      155000   -840.13172    270.09866   -1110.2304    86.802777    25.105525   -1222.1387    303.05185    118.54054    33638.674   0.78271897    3.5066755 
      156000   -828.84706     271.6946   -1100.5417    82.110017    30.981639   -1213.6333     304.8425    76.784198    33850.856   0.77781277    3.4952369 
      157000    -824.7378    267.12845   -1091.8662    73.442548    37.250634   -1202.5594    299.71926    52.956531    34168.516   0.77058156    3.4987131 
      158000   -822.96048    260.68179   -1083.6423    81.726209    30.298007   -1195.6665    292.48608   -120.40743    34537.911   0.76233992    3.5505223 
      159000   -822.31924    254.07655   -1076.3958    62.300284    26.730154   -1165.4262    285.07497   -26.941698    34846.029   0.75559911     3.593851 
      160000   -817.62917    240.71521   -1058.3444     77.54281    30.047761    -1165.935     270.0835   -91.244269    35036.089   0.75150019    3.5206497 
      161000   -806.13471    257.92156   -1064.0563    79.651339    28.699922   -1172.4075    289.38909   -244.69439    35081.425   0.75052904    3.5691553 
      162000   -787.42095    283.61535   -1071.0363    77.956922    27.595813    -1176.589    318.21763   -251.07813    34987.038   0.75255379    3.5579314 
      163000    -775.7686    285.84498   -1061.6136     84.79839    27.542299   -1173.9543    320.71929   -43.720002     34815.04   0.75627165    3.5733483 
      164000   -778.11945    279.24904   -1057.3685    92.729619    35.457202   -1185.5553    313.31861   -72.142806    34656.886   0.75972284    3.5149573 
      165000   -785.94173    265.20309   -1051.1448    66.502435    27.985806   -1145.6331      297.559    560.50706    34556.186   0.76193676    3.5605114 
      166000   -795.95018    274.27021   -1070.2204    91.601964    30.965785   -1192.7881    307.73235   -113.76183    34574.347   0.76153653     3.501191 
      167000   -805.62547    295.09657    -1100.722    62.954857    24.948218   -1188.6251    331.09961    5.1171916    34547.545   0.76212733    3.5634503 
      168000   -816.80202    261.45374   -1078.2558    68.305253    32.373019    -1178.934    293.35221    112.12968     34542.06   0.76224834    3.5373285 
      169000   -826.20552    255.09915   -1081.3047    70.818801    30.645576    -1182.769    286.22234   -18.735065    34573.501   0.76155516    3.5259189 
      170000   -829.81781     261.0793   -1090.8971    78.692244    27.251671    -1196.841    292.93209   -171.40066    34575.264   0.76151633    3.5508849 
      171000   -829.89973     244.4042   -1074.3039     83.14451    31.978823   -1189.4273    274.22255    -39.61128    34557.472   0.76190841    3.5128515 
      172000   -827.37184    260.97377   -1088.3456    69.092061    25.694105   -1183.1318    292.81368    47.508666    34563.989   0.76176473    3.5707596 
      173000   -821.53551     273.6401   -1095.1756    80.073694    28.508296   -1203.7576    307.02536   -326.70063    34615.375   0.76063391    3.5929064 
      174000   -812.49412    261.07103   -1073.5651    72.498156    30.922653    -1176.986    292.92281    23.461487    34624.944   0.76042371    3.5392226 
      175000   -798.74367    247.04514   -1045.7888     75.65942    36.735547   -1158.1838     277.1857    180.75116     34645.99   0.75996178    3.5664007 
      176000   -785.07616    284.89562   -1069.9718     78.61167    33.347244   -1181.9307     319.6541   -47.117767     34678.15   0.75925701    3.5767756 
      177000   -782.06955    282.25294   -1064.3225    79.786111     25.31673   -1169.4253      316.689    82.330515     34737.95   0.75794997    3.5464624 
      178000   -785.76541    253.48951   -1039.2549    87.239594    31.419626   -1157.9141    284.41631    180.68678    34884.033   0.75477591    3.5235249 
      179000   -795.18513    277.39374   -1072.5789    68.216936    26.548762   -1167.3446    311.23696   -169.58037    35074.291   0.75068168    3.5638024 
      180000   -812.05969    253.12747   -1065.1872    83.196253    28.059826   -1176.4432     284.0101    -369.0607     35192.91   0.74815148    3.5611354 
      181000   -826.10944    245.11423   -1071.2237    62.419672    31.831117   -1165.4745    275.01922   -189.21314    35163.017   0.74878751    3.5732027 
      182000   -830.11175    258.34676   -1088.4585    73.850399    23.787309   -1186.0962    289.86616    -319.5254    34975.168   0.75280919    3.5991423 
      183000   -828.18872    246.79412   -1074.9828    73.794957    18.934794   -1167.7126    276.90405    234.06207    34664.315   0.75956002    3.5612338 
      184000    -824.3644    275.00337   -1099.3678    62.425593    26.952757   -1188.7461    308.55495    89.462524    34403.702   0.76531379    3.5257125 
      185000   -820.76029    275.52978   -1096.2901    72.942519    28.237586   -1197.4702    309.14559    64.615155    34231.744   0.76915824    3.5570849 
      186000   -820.95933    282.71106   -1103.6704    70.069027    31.500893   -1205.2403    317.20302    107.69724    34146.052   0.77108851    3.5343935 
      187000   -824.86606    266.96208   -1091.8281    91.015123    25.680246   -1208.5235     299.5326   -47.883732    34164.847   0.77066431    3.5135032 
      188000    -834.5032    272.14146   -1106.6447    60.712875    31.971823   -1199.3294    305.34388    26.865043    34235.799   0.76906714    3.5522873 
      189000   -851.58303    246.55746   -1098.1405    69.291259     25.49931   -1192.9311    276.63852 -0.080676818    34306.414   0.76748413    3.5873908 
      190000   -864.03175    218.76467   -1082.7964    77.316524    30.915456   -1191.0284    245.45489   -25.980079    34316.273   0.76726362     3.547346 
      191000   -864.65028     235.5452   -1100.1955    82.602054    30.467223   -1213.2648    264.28272   -172.04495    34270.868   0.76828016     3.523342 
      192000    -856.7434     263.2476    -1119.991    59.753781    28.686245    -1208.431    295.36493    7.0783529     34162.97   0.77070665    3.5487266 
      193000   -849.17579    251.93297   -1101.1088    80.311754    25.859079   -1207.2796    282.66987   -14.504853    34089.378   0.77237044    3.5288758 
      194000   -842.54631    262.82403   -1105.3703    80.037618    33.924837   -1219.3328    294.88968   -37.813433    34034.729   0.77361064    3.4933644 
      195000   -836.65312    261.77166   -1098.4248     85.86382     30.74694   -1215.0355    293.70892   -26.781381    33958.446   0.77534844    3.4995189 
      196000   -830.90452    258.59047    -1089.495    78.498935    31.583729   -1199.5776    290.13961     254.9687    33918.741   0.77625606    3.4785478 
      197000   -826.01418    269.20622   -1095.2204    81.167889     22.68848   -1199.0768    302.05053    82.559756    34023.753    0.7738602    3.5363519 
      198000   -822.38409    256.60073   -1078.9848    78.102748    31.563843   -1188.6514    287.90711     175.5318    34230.297   0.76919076    3.4996806 
      199000   -819.83019     274.1777   -1094.0079    81.110422    27.953521   -1203.0718    307.62855   -214.25846    34456.085   0.76415031    3.5525895 
      200000   -821.70303    262.48432   -1084.1873    71.208939    30.833574   -1186.2299    294.50852   -70.628561    34585.021   0.76130149    3.5452934 
      201000    -829.0542    248.34699   -1077.4012    71.277997    24.903153   -1173.5823    278.64639    68.584822    34631.568   0.76027825    3.5384339 
      202000    -839.8806     260.5606   -1100.4412    74.406774    28.248755   -1203.0967    292.35011   -250.23298    34623.788   0.76044909    3.5427188 
      203000   -847.79814    239.39993   -1087.1981    68.831345    31.057989   -1187.0874    268.60774   -6.6895691    34516.264   0.76281803    3.5041245 
      204000   -847.99638    245.57444   -1093.5708    78.568557    24.542431   -1196.6818    275.53557    -83.02743    34348.623   0.76654101    3.5442812 
      205000   -842.20621     258.1228    -1100.329    75.466664    25.929702   -1201.7254    289.61488    47.117837    34130.802   0.77143302    3.5366478 
      206000   -834.04797    272.84996   -1106.8979    73.258037    27.909921   -1208.0659    306.13882    127.12735     33931.51   0.77596394    3.5285753 
      207000   -824.64748    278.69019   -1103.3377    76.496321     33.52434   -1213.3583    312.69158    127.71141    33815.545   0.77862498    3.4805266 
      208000   -815.91011    261.55942   -1077.4695    99.957935    25.741645   -1203.1691    293.47079    176.69119    33802.674   0.77892146    3.5059666 
      209000   -809.99039    275.87389   -1085.8643     87.39992    32.698075   -1205.9623    309.53168    106.75197    33944.936   0.77565703    3.4954062 
      210000   -809.82504     277.2429   -1087.0679    86.677811    26.877286    -1200.623    311.06772   -11.817414    34225.616   0.76929595    3.5058011 
      211000   -816.62416    252.27949   -1068.9036    83.185281     34.50166   -1186.5906    283.05866   -75.429162     34556.08   0.76193909    3.4799131 
      212000    -825.4756    251.59924   -1077.0748    79.970231    34.052812   -1191.0979    282.29542   -325.75419    34846.983   0.75557842    3.5266355 
      213000   -831.00858    262.71051   -1093.7191     66.99226    24.571427   -1185.2828    294.76232   -236.60047    35031.359   0.75160166    3.5450598 
      214000   -831.10619    234.05927   -1065.1655    62.876796    32.934832   -1160.9771     262.6155   -135.32016    35087.717   0.75039444    3.5354131 
      215000   -821.73442    266.95839   -1088.6928    70.685595    33.216288   -1192.5947    299.52845   -313.85423    34969.483   0.75293158    3.5744779 
      216000   -807.25688    254.22011    -1061.477    73.803334    31.344529   -1166.6248    285.23604    94.907709      34740.9   0.75788561     3.522528 
      217000   -795.34538    280.90359    -1076.249    77.143457    29.720038   -1183.1125    315.17503    32.473762    34546.861   0.76214241    3.5422844 
      218000   -793.30298    274.83967   -1068.1426    76.612337    31.904136   -1176.6591    308.37128    117.69914    34433.886   0.76464295     3.511466 
      219000   -799.42668    271.80778   -1071.2345    93.845858    25.704071   -1190.7844    304.96949    14.742719    34414.542   0.76507274    3.5170202 
      220000    -807.8899    269.49704   -1077.3869    78.221565    31.923958   -1187.5325    302.37683    10.162763    34488.398   0.76343437    3.5210392 
      221000    -815.8303    262.68137   -1078.5117    57.956802    34.922781   -1171.3913    294.72962    144.06286    34573.469   0.76155587    3.5309664 
      222000   -821.52259     276.5047   -1098.0273    66.461992    32.217285   -1196.7066    310.23945   -154.59441    34627.805   0.76036088    3.5358042 
      223000    -824.6888    250.25154   -1074.9403    68.365865     41.71387   -1185.0201    280.78329   -113.86487    34604.889   0.76086439    3.5348254 
      224000   -825.39858    256.04579   -1081.4444     82.76006    28.222712   -1192.4271    287.28447   -119.54396    34516.265     0.762818     3.563112 
      225000   -826.57896    263.97189   -1090.5508    80.579525    31.216033   -1202.3464    296.17759   -53.252563    34371.817   0.76602375    3.5107556 
      226000   -826.19392    248.11292   -1074.3068    85.016624    26.464833   -1185.7883    278.38376    196.89303    34248.376   0.76878471    3.5226441 
      227000   -826.75417    277.35493   -1104.1091    71.837988    27.951672   -1203.8988    311.19341    62.150357    34187.774   0.77014748    3.5205232 
      228000   -830.66053    263.93717   -1094.5977    68.990878    27.374805   -1190.9634    296.13864    186.86921    34244.462   0.76887258    3.4847599 
      229000   -840.27986    251.99034   -1092.2702    73.457143    28.501541   -1194.2289    282.73424   -28.918452    34428.091   0.76477164    3.5348155 
      230000   -853.65606     255.4732   -1109.1293    68.894095    19.270429   -1197.2938    286.64202   -80.334797    34600.854   0.76095313    3.6361763 
      231000   -863.16381    244.83955   -1108.0034    64.796173    27.396351   -1200.1959    274.71103   -266.47666    34688.356    0.7590336    3.5703158 
      232000   -863.44216    243.82332   -1107.2655    61.271207    28.499497   -1197.0362     273.5708   -207.35544    34617.281   0.76059203    3.6020729 
      233000   -856.22582    243.45718    -1099.683    79.847883    21.487571   -1201.0185    273.15999   -120.55693    34389.726   0.76562482    3.5499782 
      234000   -841.15837    260.59419   -1101.7526    70.978101    28.795422   -1201.5261     292.3878    133.13026    34095.226   0.77223797    3.5180049 
      235000   -829.99913    255.37137   -1085.3705     85.12747    18.619341   -1189.1173    286.52777    327.98377    33891.938   0.77686995    3.5482105 
      236000   -827.14739    275.05985   -1102.2072    75.246363     29.62758   -1207.0812    308.61832    216.15374    33842.076   0.77801457    3.5280309 
      237000   -830.29968    266.62125   -1096.9209    81.808979    27.850692   -1206.5806    299.15018    150.60758    33918.043   0.77627204    3.5033186 
      238000   -837.30765    253.52846   -1090.8361     82.46858    24.304607   -1197.6093    284.46002     35.27123    34100.068   0.77212831    3.5287579 
      239000   -840.18807     246.5846   -1086.7727    77.717916    32.013113   -1196.5037    276.66898    23.553894    34283.115    0.7680057    3.5282218 
      240000   -837.72054    265.20467   -1102.9252    75.383824    25.819501   -1204.1285    297.56078   -196.85769    34452.985   0.76421907    3.5505449 
      241000   -829.08492    259.28367   -1088.3686    69.487097    25.343836   -1183.1995    290.91739   -14.475601    34584.369   0.76131585    3.5470683 
      242000   -810.64604    265.51122   -1076.1573    63.422799    34.752532   -1174.3326    297.90472    31.791723    34688.115   0.75903888    3.5491518 
      243000   -791.57325    273.60765   -1065.1809    82.556617    25.366725   -1173.1042    306.98895   -20.758712    34763.692   0.75738871    3.5665627 
      244000   -787.38812    269.52909   -1056.9172    77.029085     24.17567    -1158.122    302.41279    98.708995    34844.202   0.75563872    3.5481805 
      245000   -790.19065    279.46272   -1069.6534    75.712758    27.323006   -1172.6891    313.55836   -79.313046    34987.795   0.75253751    3.5650817 
      246000   -796.35573    258.59539   -1054.9511    73.151001    28.022519   -1156.1246    290.14513   -57.696849    35104.482   0.75003607    3.5848759 
      247000   -803.34483     268.4144   -1071.7592    66.584121    34.957353   -1173.3007     301.1621   -99.632968    35146.496   0.74913948    3.5305278 
      248000   -810.49352    257.39418   -1067.8877    68.175157    27.947621   -1164.0105    288.79737   -56.799817     35102.35   0.75008163    3.5718625 
      249000   -816.21954    262.53619   -1078.7557    73.554787    31.669898   -1183.9804    294.56673   -309.26379     34973.87   0.75283713    3.5938502 
      250000    -822.9725    259.91391   -1082.8864    68.453474    29.497279   -1180.8372    291.62451    -132.6712    34696.775   0.75884944    3.5972246 
      251000   -834.10963    233.98321   -1068.0928    88.693912    27.053988   -1183.8407    262.53016    102.37085    34333.663   0.76687501    3.5071433 
      252000   -846.88254    251.13276   -1098.0153    70.959119    33.171134   -1202.1456    281.77203    51.518998    34046.651   0.77333974    3.5161244 
      253000   -859.43428    248.92521   -1108.3595    79.554299    29.377354   -1217.2911    279.29515    57.102576    33836.627   0.77813987    3.4936766 
      254000   -867.59894    261.39637   -1128.9953    73.728654    25.905159   -1228.6291    293.28785   -12.036186    33696.598   0.78137347    3.5444948 
      255000   -871.05924    255.53518   -1126.5944     76.40831    19.368491   -1222.3712    286.71156    148.21022    33636.533   0.78276879    3.5790498 
      256000   -869.40791    272.89664   -1142.3046    61.639758    31.778957   -1235.7233     306.1912    37.966905    33667.792   0.78204203    3.5572692 
      257000    -853.7957    260.83293   -1114.6286    79.964532     27.92557   -1222.5187    292.65567      36.0073    33758.318   0.77994491    3.5008131 
      258000   -832.18746    272.21006   -1104.3975    73.200142    22.825915   -1200.4236    305.42085    156.56327    33908.359   0.77649372    3.5950925 
      259000   -824.02206     263.6906   -1087.7127    90.794567    27.996933   -1206.5042    295.86198   -77.149353    34152.133   0.77095121    3.5652918 
      260000   -819.07488    256.05032   -1075.1252    73.781881    36.028206   -1184.9353    287.28955    51.366718     34447.89    0.7643321    3.5116785 
      261000   -813.61217    273.28308   -1086.8952    68.559862    27.637341   -1183.0925    306.62478   -57.291392    34737.643   0.75795666     3.573362 
      262000   -808.01329    253.64698   -1061.6603    75.108869    27.316708   -1164.0858      284.593   -70.107761    34953.666   0.75327229    3.5827772 
      263000   -801.33681    264.72517    -1066.062    85.438556    28.041805   -1179.5423    297.02277   -242.86142    35045.202   0.75130479    3.5151373 
      264000   -791.18876    267.08325    -1058.272    73.591152     31.06878   -1162.9319    299.66854    17.219275    35053.667   0.75112335    3.5504805 
      265000   -779.31385    276.04175   -1055.3556    87.050994     30.90104   -1173.3076    309.72002   -181.01972    35062.285   0.75093874    3.4972137 
      266000   -771.89381    278.04726   -1049.9411    89.248205      24.1702   -1163.3595    311.97021   -33.934112    35050.566    0.7511898    3.5427384 
      267000   -774.82828    278.23138   -1053.0597     76.14328    26.176544   -1155.3795     312.1768    56.263896    35050.076   0.75120032    3.5439692 
      268000   -794.69508    255.64614   -1050.3412    83.179062    23.759266   -1157.2795    286.83606   -7.4511686    35023.326   0.75177407    3.5692406 
      269000   -816.13474    246.26199   -1062.3967    76.800436     27.01028   -1166.2074      276.307   -43.544817     34938.07   0.75360854    3.5337436 
      270000   -822.11358    267.25501   -1089.3686    76.558175    24.665329   -1190.5921    299.86127   -185.67924     34811.21   0.75635487     3.537622 
      271000   -823.85329    255.81576    -1079.669    74.530175    24.122244   -1178.3215    287.02637   -22.637307    34668.078   0.75947757     3.542113 
      272000   -824.51841    262.28915   -1086.8076    65.537174    32.994573   -1185.3393    294.28954   -36.899961    34496.166   0.76326244    3.5413278 
      273000   -826.41426    259.78228   -1086.1965    72.492857    40.356779   -1199.0462    291.47682    30.468762    34261.372    0.7684931    3.5073429 
      274000   -826.54951     266.5555    -1093.105    91.366644    33.849068   -1218.3207    299.07641   -4.2175264      34045.9   0.77335679    3.4923841 
      275000   -827.13281    249.19023    -1076.323    87.446589    32.597921   -1196.3676    279.59251     166.2881    33927.455   0.77605667    3.5224135 
      276000   -830.51859    265.48705   -1096.0056    83.856686    36.051072   -1215.9134     297.8776    24.504961    33927.127   0.77606419    3.4644088 
      277000   -836.98414    261.35478   -1098.3389    67.163029    34.567402   -1200.0693    293.24117    163.70269    34028.798   0.77374545    3.4969615 
      278000   -844.73971    257.39617   -1102.1359    67.038691    35.962469    -1205.137     288.7996   -38.951374    34184.555   0.77022001     3.552739 
      279000   -851.99939    262.40608   -1114.4055    69.113697    28.443645   -1211.9628    294.42075   -162.93167    34316.238   0.76726441    3.5900959 
      280000   -856.25767    252.09859   -1108.3563    66.975003     31.60419   -1206.9355    282.85569   -155.22728    34392.609   0.76556065     3.514388 
      281000   -853.45069     231.5766   -1085.0273    61.652159    34.726509    -1181.406    259.82993    130.45755    34377.597   0.76589495     3.509707 
      282000   -837.64638    251.87326   -1089.5196    77.873996    29.421818   -1196.8155    282.60288   -75.994948    34338.779   0.76676075    3.5886974 
      283000   -821.47108    273.08169   -1094.5528     62.56732    31.083673   -1188.2038    306.39882    154.53854    34270.893    0.7682796    3.5214349 
      284000   -816.30182    270.58176   -1086.8836    66.323967    29.808217   -1183.0158    303.59389    311.23585    34244.847   0.76886395    3.5133245 
      285000   -817.97347    272.00693   -1089.9804    80.755988     32.69128   -1203.4277    305.19293   -75.610112    34312.111    0.7673567    3.5096912 
      286000   -822.84607    260.79243   -1083.6385    76.154221     30.67219   -1190.4649    292.61022    62.715449    34417.865   0.76499889    3.5181777 
      287000   -828.56924    264.88971    -1093.459    62.454454    34.807855   -1190.7213    297.20739   -64.273636     34549.39   0.76208663    3.5153892 
      288000    -832.1733    256.52719   -1088.7005    59.012186    33.369158   -1181.0818    287.82461    14.423886    34657.304   0.75971369    3.5276224 
      289000   -831.67668    253.95764   -1085.6343    76.985679    25.311957    -1187.932    284.94156   -173.80941    34737.324   0.75796362    3.5672677 
      290000   -821.30477    244.47334   -1065.7781    68.590226    26.357524   -1160.7259    274.30013    35.350566    34776.729   0.75710478    3.5648286 
      291000   -802.52184    260.71607   -1063.2379    72.455856    28.023962   -1163.7177    292.52455    105.47399    34765.519   0.75734892    3.5884783 
      292000   -791.74993    289.16938   -1080.9193    75.610374    29.150581   -1185.6803    324.44927   -146.98609    34757.621   0.75752101    3.5562848 
      293000    -791.3349     272.8492   -1064.1841     72.17191    31.230637   -1167.5866    306.13797    99.901039    34752.782   0.75762648    3.5175432 
      294000   -797.52672    274.06049   -1071.5872    71.756197    30.036231   -1173.3796    307.49704    33.651557    34790.426   0.75680672    3.5631186 
      295000   -807.71428    268.48329   -1076.1976    59.775594    33.403037   -1169.3762     301.2394    23.387709    34835.013   0.75583805    3.5369569 
      296000   -817.19624    251.30948   -1068.5057    64.688129    27.657223   -1160.8511    281.97031    38.321358    34871.445   0.75504838    3.5549513 
      297000    -822.0371    261.34511   -1083.3822    67.820241    32.448479   -1183.6509    293.23033   -242.92019    34872.704   0.75502112    3.5109002 
      298000   -822.26953    275.95545    -1098.225     68.26907    24.007541   -1190.5016     309.6232   -98.799314    34787.344   0.75687377    3.5263041 
      299000   -820.25537    264.50334   -1084.7587    68.839384    28.599722   -1182.1978    296.77388   -91.469041    34685.034   0.75910631    3.5636887 
      300000   -815.61505    261.11236   -1076.7274    71.995848    26.650263   -1175.3735    292.96918    113.21583    34563.099   0.76178435     3.561048 
      301000   -807.19225    263.85249   -1071.0447     77.45795    30.012085   -1178.5148    296.04362    142.80887    34474.559   0.76374083    3.5290843 
      302000   -787.44782    278.53865   -1065.9865    85.983141    27.743673   -1179.7133    312.52155    192.53619    34490.942   0.76337805    3.5274437 
      303000   -772.16553    286.62317   -1058.7887    76.390248    37.539887   -1172.7188    321.59242    103.06081     34637.99   0.76013729    3.5191212 
      304000   -772.13976    265.88293   -1038.0227    81.651941    40.276399    -1159.951    298.32178    146.88858      34861.2   0.75527027    3.4889086 
      305000   -782.06698    267.01739   -1049.0844    72.899467    31.895855   -1153.8797    299.59465    18.002864    35124.088   0.74961741    3.5708681 
      306000   -796.41617    278.69299   -1075.1092    65.981143    34.731029   -1175.8213    312.69473   -242.35194    35310.593   0.74565804    3.5227101 
      307000   -806.36765    250.30798   -1056.6756    73.928833    36.201181   -1166.8056    280.84662   -245.93268    35322.941   0.74539738     3.557744 
      308000   -812.80073    248.87482   -1061.6755    78.518893    37.802734   -1177.9972    279.23861   -250.09909    35155.865   0.74893985    3.4914624 
      309000   -815.08581    271.27806   -1086.3639    56.146891    32.163181   -1174.6739    304.37515    32.380121    34898.606   0.75446075    3.5416524 
      310000   -816.85619    268.97753   -1085.8337    76.694262    29.149858   -1191.6778    301.79394   -130.23526    34621.304   0.76050366    3.5275872 
      311000   -816.69303    262.34083   -1079.0339    77.811517    38.986754   -1195.8321    294.34753    11.543808    34358.899   0.76631175    3.4714713 
      312000   -817.75337    272.16791   -1089.9213     76.27722    39.454605   -1205.6531    305.37355    67.923829    34180.088   0.77032066    3.4972813 
      313000   -823.70916     270.3338    -1094.043    70.103494    33.088201   -1197.2347    303.31568    172.81459    34087.649   0.77240963    3.5229428 
      314000   -839.55216    259.02196   -1098.5741    72.531622    27.752068   -1198.8578    290.62374    58.734155    34097.758   0.77218062    3.5275954 
      315000   -852.46208    255.45921   -1107.9213    70.989605    31.364944   -1210.2758    286.62632    -32.23237     34146.77   0.77107229    3.5240028 
      316000   -858.77439     241.1482   -1099.9226     72.56828    26.827678   -1199.3185    270.56931     74.24824    34157.963   0.77081961    3.5595528 
      317000   -859.19952    232.63198   -1091.8315    74.557153     26.63683   -1193.0255    261.01407    39.179787    34147.472   0.77105643    3.5607997 
      318000   -851.93319    256.44949   -1108.3827    65.577977     26.80227   -1200.7629    287.73742    128.54325    34125.701   0.77154834     3.543011 
      319000   -840.38512    269.62614   -1110.0113    74.972821    26.208443   -1211.1925    302.52168  -0.58799974    34122.333   0.77162451    3.5301292 
      320000   -827.65481    260.48401   -1088.1388    85.795289    23.933147   -1197.8673    292.26418  -0.19380237    34163.836   0.77068711    3.5567238 
      321000    -820.9205    254.18228   -1075.1028    80.748262    34.429758   -1190.2808     285.1936    82.474453    34220.694    0.7694066    3.5592614 
      322000   -817.13934    263.71729   -1080.8566    76.987026    36.066084   -1193.9097    295.89192    112.11113    34307.129   0.76746812    3.5387118 
      323000    -817.3976    254.00404   -1071.4016     85.45938    30.251708   -1187.1127    284.99362   -15.256136    34443.644   0.76442631    3.5355381 
      324000    -818.1189    274.32284   -1092.4417    70.260109     32.29102   -1194.9929     307.7914   -65.970416    34576.385   0.76149163    3.5317303 
      325000   -819.16846    268.58832   -1087.7568    72.399064    24.364638   -1184.5205    301.35724   -91.009991    34704.341   0.75868399     3.515507 
      326000   -819.01237    254.97856   -1073.9909    76.638562    33.176512    -1183.806    286.08704   -49.833991    34798.776   0.75662513    3.5349427 
      327000   -815.86757    269.46601   -1085.3336    86.168655    23.165479   -1194.6677    302.34202    -343.5474     34857.12   0.75535868    3.5585055 
      328000    -813.6174    256.49149   -1070.1089    76.345605    28.593892   -1175.0484    287.78455   -85.601394    34794.962   0.75670806     3.516307 
      329000   -811.25242    258.17701   -1069.4294    78.102957    33.401579    -1180.934    289.67571   -44.114272        34707   0.75862586    3.5203065 
      330000   -807.55295    265.50361   -1073.0566    69.647311    21.851892   -1164.5558    297.89618    172.10706    34620.959   0.76051124    3.5975968 
      331000   -805.86406    251.89094    -1057.755    95.798368    32.801168   -1186.3545    282.62271    6.1156092    34566.225   0.76171546    3.5314143 
      332000   -806.55062    260.85581   -1067.4064    74.659636    33.860761   -1175.9268    292.68133     102.7159    34556.953   0.76191985    3.5493385 
      333000   -810.45279    269.95985   -1080.4126    68.792168    30.693441   -1179.8982     302.8961    23.454385    34567.312   0.76169151    3.5483825 
      334000   -817.79772    275.93763   -1093.7354    59.615411    31.191195    -1184.542     309.6032    -7.762252    34548.328   0.76211005    3.5670112 
      335000    -826.2654    257.63566   -1083.9011    77.300311    27.104471   -1188.3058    289.06831    49.938165    34514.805   0.76285026    3.5075665 
      336000   -833.02363    251.79831   -1084.8219     70.06042    29.812073   -1184.6944    282.51878    29.201891    34465.253   0.76394705    3.5377267 
      337000   -840.09756    267.81152   -1107.9091    63.144916    29.633661   -1200.6877    300.48567   -48.343626    34355.775   0.76638143    3.5460025 
      338000   -846.87679    264.19787   -1111.0747    67.222784    25.895121   -1204.1926    296.43114   -45.500862    34222.263   0.76937133    3.5535503 
      339000   -851.97102    256.68745   -1108.6585    69.329113    25.040605   -1203.0282    288.00441    85.616753    34096.128   0.77221754    3.5496058 
      340000   -857.49803    254.22629   -1111.7243    69.962539    36.181964   -1217.8688    285.24299   -25.915431    33995.441   0.77450468    3.5173886 
      341000    -862.5843    263.57943   -1126.1637    75.950715    26.995756   -1229.1102    295.73724   -67.298488    33882.688   0.77708204    3.5328796 
      342000   -865.57538     240.2998   -1105.8752    76.228725    20.672681   -1202.7766     269.6174    148.69387    33836.734   0.77813739    3.5945629 
      343000   -865.27341    246.86972   -1112.1431    78.863031    25.116085   -1216.1222    276.98888    60.461172    33874.104   0.77727894    3.5331169 
      344000   -857.44239    256.17231   -1113.6147    69.058246    29.140689   -1211.8136    287.42642    14.483615    33948.066   0.77558551    3.5119852 
      345000   -842.90116    262.27287    -1105.174    75.145857    26.866047   -1207.1859    294.27128    74.611263    34018.426   0.77398138    3.5320597 
      346000   -830.51978    269.39727   -1099.9171    85.917839    27.076432   -1212.9113    302.26489   -90.515271    34111.272   0.77187471    3.5221688 
      347000   -823.75438     255.3987   -1079.1531    94.526577    32.115334    -1205.795    286.55843   -34.143781    34232.451   0.76914235    3.4999339 
      348000   -819.83894    285.66601    -1105.505     72.92481    24.517139   -1202.9469    320.51849   -50.933631    34354.558   0.76640857     3.525176 
      349000   -819.94611    251.26249   -1071.2086    67.536522    31.452036   -1170.1972    281.91758    150.11634    34496.774   0.76324899     3.546761 
      350000   -821.80051     276.2094   -1098.0099    65.661938    28.822773   -1192.4946    309.90813   -180.99213    34625.641    0.7604084     3.577269 
      351000   -824.65341    255.32304   -1079.9765    69.262681    30.419627   -1179.6588    286.47354   -3.1421288    34698.949   0.75880189    3.5625548 
      352000   -829.39224    248.18946   -1077.5817    81.830087    26.069066   -1185.4809    278.46963   -104.31219    34722.211   0.75829352    3.5654178 
      353000   -834.96762    249.60341    -1084.571    69.561843    38.936968   -1193.0699     280.0561   -227.13738     34687.52    0.7590519    3.5152229 
      354000   -837.69133    242.98216   -1080.6735    72.187273    28.506616   -1181.3674    272.62702    24.459401    34559.514   0.76186338    3.4945518 
      355000   -834.11063     252.1655   -1086.2761    72.187045    29.971116   -1188.4343    282.93077    19.430145    34417.577   0.76500528    3.5293216 
      356000   -827.29352    275.65574   -1102.9493    83.998438    29.562361   -1216.5101    309.28691    -279.7847    34291.273     0.767823     3.542966 
      357000   -819.09846    277.08215   -1096.1806    72.258589    31.474495   -1199.9137    310.88735    84.057143    34146.233   0.77108442    3.5239032 
      358000   -815.67729    284.18435   -1099.8616     58.44971    32.866714   -1191.1781    318.85606    318.25366    34054.321   0.77316556    3.5420959 
      359000   -819.83871    265.86427    -1085.703    73.931775    28.266274    -1187.901    298.30085    151.91253    34071.213   0.77278222    3.5631731 
      360000   -833.30564    257.10517   -1090.4108    85.799433    32.725154   -1208.9354     288.4731   -73.889465    34193.449   0.77001967    3.5586237 
      361000   -848.02644    251.08303   -1099.1095     73.96646    31.305741   -1204.3817    281.71623   -75.682196     34338.25   0.76677257    3.5032415 
      362000   -853.65758    231.72915   -1085.3867    75.551756    28.423365   -1189.3619     260.0011     -6.25391    34435.221   0.76461329    3.5683428 
      363000   -850.92611    241.69507   -1092.6212    72.796799    29.990802   -1195.4088     271.1829   -34.403891    34456.464    0.7641419    3.5354061 
      364000   -842.58937    259.88118   -1102.4705    75.507767    29.832834   -1207.8112     291.5878   -208.76978    34410.461   0.76516348     3.555673 
      365000   -832.66299    257.35835   -1090.0213    63.011497    24.435344   -1177.4682    288.75717    180.35217    34360.094   0.76628509    3.5593678 
      366000   -826.86662    248.52235    -1075.389    75.337212    24.316105   -1175.0423    278.84314    214.19776    34357.295   0.76634753    3.5828958 
      367000    -823.7102    258.27549   -1081.9857    70.178048    25.228003   -1177.3917     289.7862    146.33535    34437.938   0.76455297    3.5727548 
      368000    -820.8577    268.18767   -1089.0454    78.731937    25.910956   -1193.6883    300.90771   -176.96766     34584.11   0.76132154    3.5845445 
      369000   -820.68101    266.67107   -1087.3521    67.659482    32.541247   -1187.5528    299.20608   -112.80108    34679.867    0.7592194     3.591922 
      370000   -820.76673    268.30967   -1089.0764    68.333714    29.974069   -1187.3842     301.0446   -178.92433    34680.096   0.75921439    3.5536337 
      371000   -819.57456    257.51816   -1077.0927    76.845057    31.375295   -1185.3131    288.93648    10.862797     34587.63   0.76124407    3.4893467 
      372000   -817.31257     254.5735   -1071.8861    82.363202    33.252669   -1187.5019    285.63256    33.800832      34458.8   0.76409011    3.5174727 
      373000   -810.72571    251.34968   -1062.0754    83.427284    33.460706   -1178.9634    282.01542    96.544547    34343.607   0.76665296    3.5481284 
      374000   -800.23159    258.62714   -1058.8587    80.622306    36.877673   -1176.3587    290.18075    220.33056    34273.461   0.76822205    3.4899065 
      375000   -791.86974    277.47468   -1069.3444    74.392878    34.771407   -1178.5087    311.32777    289.64874    34313.079   0.76733504    3.5190258 
      376000   -791.69869    259.38703   -1051.0857    82.978293    36.417589   -1170.4816    291.03336    192.76757    34494.663    0.7632957    3.5096792 
      377000   -795.78488     264.3276   -1060.1125    74.856657     33.21112   -1168.1803     296.5767    62.116237     34791.69   0.75677922    3.5245552 
      378000   -800.63039    266.54921   -1067.1796    76.178015    29.109786   -1172.4674    299.06935   -137.14763    35112.444     0.749866    3.5226051 
      379000   -808.95967    255.82698   -1064.7866    71.930165    29.425525   -1166.1423    287.03896   -303.44247    35335.369   0.74513521    3.5428247 
      380000    -819.7644    258.37669   -1078.1411     74.58227    25.510658    -1178.234    289.89975   -406.51567    35330.809   0.74523139    3.5580853 
      381000   -830.98312    246.81981   -1077.8029    65.782724    24.075255   -1167.6609    276.93289   -171.10041    35064.178   0.75089819    3.5658037 
      382000   -836.81932    255.97871    -1092.798    63.519275    25.773935   -1182.0912    287.20921    44.479415    34618.727   0.76056027    3.5791936 
      383000   -836.03296    235.89885   -1071.9318    84.251076    28.769578   -1184.9525    264.67952    284.72571    34158.252    0.7708131    3.5018339 
      384000   -830.15672    267.80032    -1097.957    81.770513    29.151826   -1208.8794     300.4731    206.97694    33824.014   0.77843002    3.4973136 
      385000   -818.90044    285.08711   -1103.9876    73.697251    33.700885   -1211.3857    319.86895    268.36011    33674.967    0.7818754    3.5037457 
      386000   -812.33568    276.00616   -1088.3418    88.964123    29.898008    -1207.204    309.68009    271.62422    33720.994   0.78080819    3.4740227 
      387000   -814.43115    277.67554   -1092.1067    82.016802    25.930479    -1200.054    311.55315    198.00805    33958.109   0.77535614    3.5216098 
      388000   -824.51581    269.76813   -1094.2839    81.921399    25.743364   -1201.9487    302.68099    -78.77847    34317.882   0.76722764    3.5380405 
      389000   -837.45952    246.70382   -1084.1633     56.60867    24.838373   -1165.6104    276.80274    158.09278    34685.385   0.75909863    3.5569094 
      390000   -843.91294    248.35869   -1092.2716    68.155383    22.926252   -1183.3533    278.65951    -263.7124    35022.774   0.75178592    3.5728023 
      391000    -839.4724    248.46001   -1087.9324    63.967852    26.705504   -1178.6058    278.77319   -350.34386    35241.877   0.74711196    3.5662051 
      392000   -825.19951    258.83554   -1084.0351      68.5822    21.682399   -1174.2996    290.41458   -316.57326    35256.209   0.74680826    3.6398409 
      393000   -812.03453    260.97611   -1073.0106    67.149663    31.125902   -1171.2862    292.81631   -75.369917    35086.482   0.75042087    3.5294018 
      394000   -806.37867    271.15141   -1077.5301    76.421484    29.472243   -1183.4238    304.23304    -114.9678     34829.16   0.75596506    3.4977415 
      395000   -804.32026    272.50772    -1076.828    76.666172    22.844347   -1176.3385    305.75482    126.86519    34561.647   0.76181635    3.5995926 
      396000   -808.64454    260.87953   -1069.5241    90.829864    22.855044    -1183.209    292.70794    113.28806    34388.737   0.76564684    3.5761115 
      397000   -816.93197    263.83572   -1080.7677     76.05225    36.253619   -1193.0736     296.0248    29.229359    34320.739   0.76716378    3.5182612 
      398000   -826.86882    262.54302   -1089.4118    73.015633    33.242668   -1195.6701    294.57439   -56.651453    34313.449   0.76732677    3.5340664 
      399000    -835.7417    263.83137   -1099.5731    71.698341    30.067343   -1201.3388    296.01993   -146.68698    34318.161   0.76722142    3.5383288 
      400000   -840.69271    240.98487   -1081.6776    75.980896    26.521545     -1184.18    270.38606    108.10067    34324.387   0.76708226    3.5207772 
Loop time of 6.54062 on 1 procs for 20000 steps with 300 atoms

Performance: 5283.899 ns/day, 0.005 hours/ns, 3057.812 timesteps/s
99.7% CPU use with 1 MPI tasks x 1 OpenMP threads

MPI task timing breakdown:
Section |  min time  |  avg time  |  max time  |%varavg| %total
---------------------------------------------------------------
Pair    | 4.5357     | 4.5357     | 4.5357     |   0.0 | 69.35
Bond    | 0.17676    | 0.17676    | 0.17676    |   0.0 |  2.70
Neigh   | 1.3501     | 1.3501     | 1.3501     |   0.0 | 20.64
Comm    | 0.1811     | 0.1811     | 0.1811     |   0.0 |  2.77
Output  | 0.019496   | 0.019496   | 0.019496   |   0.0 |  0.30
Modify  | 0.2362     | 0.2362     | 0.2362     |   0.0 |  3.61
Other   |            | 0.04133    |            |       |  0.63

Nlocal:    300 ave 300 max 300 min
Histogram: 1 0 0 0 0 0 0 0 0 0
Nghost:    1708 ave 1708 max 1708 min
Histogram: 1 0 0 0 0 0 0 0 0 0
Neighs:    16474 ave 16474 max 16474 min
Histogram: 1 0 0 0 0 0 0 0 0 0

Total # of neighbors = 16474
Ave neighs/atom = 54.9133
Ave special neighs/atom = 2
Neighbor list builds = 2324
Dangerous builds = 0


###################################################
### Average box size and change box ###############

variable          vol equal vol
fix               AVE all ave/time 1 1 1 v_vol mode scalar ave running

run               20000
Per MPI rank memory allocation (min/avg/max) = 7.953 | 7.953 | 7.953 Mbytes
Time TotEng KinEng PotEng E_bond E_angle E_vdwl Temp Press Volume Density v_RG 
      400000   -840.69271    240.98487   -1081.6776    75.980896    26.521545     -1184.18    270.38606    108.10067    34324.387   0.76708226    3.5207772 
      401000    -840.7719    253.74406    -1094.516    69.205596    28.911462    -1192.633    284.70192   -23.448358    34348.089   0.76655292    3.5432461 
      402000   -839.22886    264.95186   -1104.1807    76.590418    25.870715   -1206.6419    297.27711   -68.592822     34349.82   0.76651429    3.4914458 
      403000   -833.27573    257.32311   -1090.5988     75.92549    31.829022   -1198.3534    288.71763   -92.683185    34334.851   0.76684848    3.5169598 
      404000   -821.11591    271.96163   -1093.0775    79.962876    29.749121   -1202.7895    305.14211   -40.547411    34281.036   0.76805229    3.5124195 
      405000    -810.1324    281.39156    -1091.524    83.349101    26.411441   -1201.2845    315.72253     7.352318     34261.34   0.76849382    3.5209246 
      406000   -808.12904    267.61961   -1075.7486    84.821295      30.2498   -1190.8197    300.27035    68.589186    34299.189   0.76764579    3.4644768 
      407000     -811.815    280.46628   -1092.2813    70.230461    33.064007   -1195.5757    314.68436    14.562877    34364.016   0.76619764    3.5270873 
      408000   -821.95103    254.69872   -1076.6497     78.99998    36.055811   -1191.7055    285.77305   -11.686824    34444.287   0.76441204    3.5083393 
      409000     -830.492    261.71368   -1092.2057    66.120874    30.890188   -1189.2167    293.64387   -5.5240019    34528.705   0.76254317    3.5306931 
      410000   -839.14854    253.19749    -1092.346    85.466189    28.683728    -1206.496    284.08867   -236.27553    34555.573   0.76195026    3.5240355 
      411000   -844.15591    248.17625   -1092.3322    73.383254    29.402093   -1195.1175    278.45482   -145.85952    34510.148   0.76295321    3.5514913 
      412000   -846.22322    255.99762   -1102.2208    74.638863    27.731823   -1204.5915    287.23042   -151.47135    34371.809   0.76602392    3.5307298 
      413000   -844.60822    258.58984   -1103.1981    75.055782    24.955489   -1203.2093     290.1389    1.4581961     34157.97   0.77081946    3.5402369 
      414000   -835.30318    272.34629   -1107.6495    75.916527    31.472432   -1215.0384     305.5737     23.73885    33952.691   0.77547986    3.5064805 
      415000    -822.3962    277.08113   -1099.4773    80.765285    33.756923   -1213.9995    310.88621    186.68595    33835.012   0.77817699    3.5069852 
      416000   -814.41921     279.4455   -1093.8647     82.47061    26.729346   -1203.0647    313.53905    348.17071    33888.637   0.77694562    3.4976624 
      417000   -813.03541    283.12068   -1096.1561    85.806731    31.796478   -1213.7593    317.66261    24.464027    34138.549   0.77125797    3.4986839 
      418000   -814.36522    264.68897   -1079.0542    79.009438    31.073839   -1189.1375    296.98215   -55.163543    34522.592   0.76267818    3.5287995 
      419000   -816.17834    259.87289   -1076.0512    66.459618    31.874055   -1174.3849     291.5785   -94.631012    34895.291    0.7545324    3.5414366 
      420000   -816.65926    252.19948   -1068.8587    76.217934    32.991597   -1178.0683     282.9689   -289.28561    35149.685   0.74907152    3.5269153 
      421000   -814.17727    249.69625   -1063.8735    68.610464    31.315754   -1163.7997    280.16026   -187.06147    35200.277   0.74799491    3.5717037 
      422000   -804.74086    279.24687   -1083.9877     63.43377    25.903305   -1173.3248    313.31618   -183.24977    35091.353   0.75031669     3.555894 
      423000   -791.41809    261.38895    -1052.807    89.736954    29.605803   -1172.1498    293.27952   -187.68585    34916.414   0.75407596    3.5046896 
      424000   -783.95435    267.54892   -1051.5033    84.014766    25.293949    -1160.812    300.19103    202.01187    34668.322   0.75947224    3.5613537 
      425000   -787.07398    290.43095   -1077.5049    73.215328    23.427269   -1174.1475    325.86476    118.55503    34447.305   0.76434508    3.5997509 
      426000   -803.44993    278.05453   -1081.5045    85.623076    22.386431    -1189.514    311.97837    176.32047     34276.38   0.76815662    3.4955135 
      427000   -818.66885    272.23119      -1090.9    73.977453    35.290813   -1200.1683    305.44456    43.185553    34245.926   0.76883972    3.5498704 
      428000   -823.65823    267.54256   -1091.2008    74.459682    31.345072   -1197.0055     300.1839    47.305787    34334.114   0.76686493    3.4696723 
      429000   -825.21883    264.65496   -1089.8738    74.196488    31.123372   -1195.1936    296.94399   -19.045987    34460.232   0.76405834    3.5179161 
      430000   -826.60542    266.68541   -1093.2908     58.21862    29.210022   -1180.7195    299.22217   -3.3250925    34576.901   0.76148026    3.5754843 
      431000   -827.03846    255.32251    -1082.361    72.212493     26.77508   -1181.3485    286.47295    34.607282    34660.796   0.75963715    3.5483434 
      432000   -827.41227    267.06873    -1094.481    70.934332    24.081061   -1189.4964    299.65226   -177.04354     34731.88   0.75808244    3.5784786 
      433000     -826.556    254.54999    -1081.106     79.40895    20.443801   -1180.9587    285.60618   -186.50909    34755.936   0.75755773    3.6022491 
      434000   -821.83991    255.22123   -1077.0611    87.216375    24.593259   -1188.8708    286.35931   -157.36252    34731.176   0.75809779    3.5320648 
      435000   -811.84172    272.22736   -1084.0691    74.478444    25.274292   -1183.8218    305.44026   -14.497512    34722.905   0.75827837    3.5416215 
      436000   -799.89807     276.7958   -1076.6939     75.29824    23.871046   -1175.8632    310.56607  -0.74216265    34725.962   0.75821163    3.5706261 
      437000   -793.03459    264.65412   -1057.6887     79.04502    33.647295    -1170.381    296.94305     54.12984    34743.486   0.75782919    3.5387065 
      438000   -791.90045     260.8866    -1052.787    78.520079     33.32857   -1164.6357    292.71588    76.989819     34821.23   0.75613722    3.5180758 
      439000   -794.26215      271.025   -1065.2871    73.134983    28.294188   -1166.7163    304.09121   -28.678173     34914.23   0.75412311    3.5684927 
      440000   -804.48157    260.00709   -1064.4887    73.379751    28.520952   -1166.3894    291.72906   -17.641437    34932.107   0.75373719    3.5213643 
      441000   -819.42145    266.05231   -1085.4738    70.114496    32.587887   -1188.1761    298.51183   -256.20837    34888.234   0.75468504     3.522232 
      442000   -833.19178    241.15485   -1074.3466    74.840479     27.64285     -1176.83    270.57677   -97.811088    34715.842   0.75843266    3.5223122 
      443000   -839.85898    256.40373   -1096.2627    58.585179    35.772154     -1190.62    287.68608   -49.813774    34423.812   0.76486671    3.5579908 
      444000   -840.28147     253.5239   -1093.8054    70.888572    35.114661   -1199.8086    284.45489    128.43517    34062.561   0.77297852    3.5423377 
      445000   -837.19567    267.21713   -1104.4128     80.48744    38.282964   -1223.1832    299.81876     172.1708    33757.245    0.7799697    3.4867829 
      446000   -833.54279    266.73816   -1100.2809    93.241382    33.287416   -1226.8097    299.28135    148.39715    33604.565   0.78351343    3.4673199 
      447000   -833.13742    263.43882   -1096.5762    87.484786    30.121234   -1214.1823    295.57948    233.68193    33618.138   0.78319708     3.496991 
      448000   -841.17999    252.32572   -1093.5057    81.014827    36.739488     -1211.26    283.11054    130.44623     33776.81   0.77951791    3.4973314 
      449000   -859.24512     231.1565   -1090.4016    74.350503    36.054758   -1200.8069    259.35857    81.918931    33995.085   0.77451279    3.5079116 
      450000   -869.63342    242.96423   -1112.5976    52.725807    33.604549    -1198.928     272.6069   -56.730843    34228.593   0.76922904    3.5280058 
      451000   -867.49012    234.31843   -1101.8086    76.956155    31.105506   -1209.8702    262.90628   -220.54386    34380.358   0.76583346    3.5482466 
      452000   -854.87819    253.84251   -1108.7207    67.201666     28.66294   -1204.5853    284.81238   -146.33766    34422.105   0.76490465    3.5519988 
      453000   -839.69328    245.18116   -1084.8744    75.848409    30.320596   -1191.0434    275.09431    13.170474    34411.256    0.7651458    3.5498036 
      454000   -829.69404    262.93997    -1092.634    72.540941    32.124934   -1197.2999    295.01977   -149.71623    34380.319    0.7658343    3.5357239 
      455000   -822.92088    267.33083   -1090.2517    77.430174    28.933027   -1196.6149    299.94634   -36.619131    34298.412   0.76766318    3.5559422 
      456000   -820.11493    258.79902    -1078.914    79.934501    25.394364   -1184.2428    290.37361    231.80631    34203.401    0.7697956    3.5293601 
      457000   -818.14343    268.56536   -1086.7088    78.692444     22.20669   -1187.6079    301.33148    210.40478     34208.01    0.7696919    3.4989597 
      458000     -820.355    255.76527   -1076.1203    79.219627    29.581158   -1184.9211    286.96973    159.20815    34298.062     0.767671    3.5312877 
      459000   -825.04792    255.04257   -1080.0905    82.374322    26.795134   -1189.2599    286.15885   -4.2788413    34445.461   0.76438599    3.5488148 
      460000   -834.48894    249.75786   -1084.2468    65.472968     29.59959   -1179.3194    280.22939   -23.721708    34575.807   0.76150438    3.5564582 
      461000   -846.86381    263.01659   -1109.8804    67.310124    25.919761   -1203.1103    295.10573   -270.37693    34635.853    0.7601842    3.5659627 
      462000   -856.57282    239.97049   -1096.5433     62.51513    27.779881   -1186.8383    269.24791   -25.747172    34549.827   0.76207699    3.5527181 
      463000   -858.60676    254.14127    -1112.748    54.204208     25.53685   -1192.4891    285.14759    -47.47778     34400.67   0.76538127    3.6093059 
      464000   -856.04412    247.96945   -1104.0136     65.18282     23.20903   -1192.4054    278.22278    100.14186     34212.92   0.76958143    3.5766897 
      465000   -845.74485    263.19376   -1108.9386    66.746517    28.887096   -1204.5722    295.30452    94.560751    34029.835   0.77372188    3.5708786 
[...]
     2890000   -807.04862    263.15588   -1070.2045    87.638009    27.782577   -1185.6251    295.26202   -44.985212    34450.393   0.76427657    3.5524358 
     2891000   -810.47788    270.73112    -1081.209    76.270186    27.873889   -1185.3531    303.76148    65.249645    34450.393   0.76427657    3.5054044 
     2892000   -823.66867    263.29796   -1086.9666    71.227346    37.414286   -1195.6083    295.42143   -49.310225    34450.393   0.76427657     3.540925 
     2893000   -840.65589    259.63386   -1100.2897    70.302176    27.433738   -1198.0257     291.3103    -82.92802    34450.393   0.76427657    3.5996979 
     2894000   -851.01083    247.40916     -1098.42    76.673462    28.911149   -1204.0046    277.59413   -133.14365    34450.393   0.76427657    3.5757155 
     2895000   -852.20814    259.66472   -1111.8729    66.738958    22.964323   -1201.5761    291.34492   -141.44346    34450.393   0.76427657    3.5753926 
     2896000   -848.42696      248.461    -1096.888    73.767632    21.312996   -1191.9686    278.77431   -18.147495    34450.393   0.76427657    3.5841892 
     2897000   -839.86723    262.32663   -1102.1939    62.927571    22.706402   -1187.8278     294.3316    92.629704    34450.393   0.76427657    3.5971227 
     2898000   -826.91048    264.73676   -1091.6472    78.459239    30.712576    -1200.819    297.03577   -92.375792    34450.393   0.76427657    3.5493237 
     2899000   -814.94385    259.21105   -1074.1549    73.696198    34.366984   -1182.2181     290.8359    45.958375    34450.393   0.76427657    3.5538718 
     2900000   -810.90058    262.32852   -1073.2291    82.240826    36.424831   -1191.8948    294.33372   -77.931514    34450.393   0.76427657    3.5476726 
     2901000   -810.26763    270.38957   -1080.6572    74.647728    35.009297   -1190.3142    303.37825    47.697048    34450.393   0.76427657    3.5074692 
     2902000   -812.60666    263.57547   -1076.1821    68.215304    34.872502   -1179.2699    295.73281    144.88817    34450.393   0.76427657    3.5467109 
     2903000    -816.3576    265.29555   -1081.6532    83.369798    32.251668   -1197.2746    297.66274   -48.718738    34450.393   0.76427657    3.5235677 
     2904000   -819.03978    258.96828   -1078.0081    83.779785    26.816441   -1188.6043    290.56351   -17.908937    34450.393   0.76427657    3.5460232 
     2905000   -821.15967    276.06268   -1097.2223    72.175594    36.279039    -1205.677     309.7435   -153.80545    34450.393   0.76427657    3.5195608 
     2906000   -822.94533    260.83467     -1083.78    85.408346     23.17483   -1192.3632    292.65761   -49.186608    34450.393   0.76427657    3.5483255 
     2907000   -829.79886    271.14554   -1100.9444    65.948242    26.156143   -1193.0488    304.22646   -5.6479647    34450.393   0.76427657    3.5268349 
     2908000   -845.58658    245.26201   -1090.8486    80.603728    28.624347   -1200.0767    275.18503   -182.18123    34450.393   0.76427657    3.5219704 
     2909000   -862.40481    242.14318    -1104.548    79.768221    30.338727   -1214.6549    271.68568   -307.05142    34450.393   0.76427657    3.5386754 
     2910000   -868.17384    232.52368   -1100.6975     72.94094    29.763121   -1203.4016    260.89256    -272.1033    34450.393   0.76427657    3.5475334 
     2911000   -863.48144    238.06986   -1101.5513    71.581152    25.928963   -1199.0614     267.1154   -179.14021    34450.393   0.76427657    3.5652833 
     2912000   -851.08914    248.46698   -1099.5561     70.59381     25.69907    -1195.849    278.78101   -101.95261    34450.393   0.76427657    3.5734256 
     2913000    -840.4486    253.50464   -1093.9532    70.965053    25.397733    -1190.316    284.43328   -38.560175    34450.393   0.76427657    3.5222381 
     2914000   -833.80421    264.53785   -1098.3421    64.198958     33.80717   -1196.3482     296.8126   -55.114306    34450.393   0.76427657    3.5342918 
     2915000   -828.50343    238.30789   -1066.8113    89.875636    33.473321   -1190.1603    267.38247   -104.50305    34450.393   0.76427657    3.5162851 
     2916000   -822.85805    250.45244   -1073.3105    80.592211    33.721961   -1187.6247     281.0087    6.5260174    34450.393   0.76427657    3.5344455 
     2917000   -816.67385    248.86282   -1065.5367    64.425966    26.910979   -1156.8736    279.22514    372.22639    34450.393   0.76427657    3.5429328 
     2918000   -811.77573    268.82378   -1080.5995    74.826086    34.759813   -1190.1854    301.62142   -41.031834    34450.393   0.76427657    3.5304429 
     2919000   -810.27276    261.26863   -1071.5414    84.303602    37.686613   -1193.5316    293.14452   -34.143555    34450.393   0.76427657    3.4857892 
     2920000   -815.27435     268.2662   -1083.5406    84.241611    32.025472   -1199.8076    300.99583   -126.84144    34450.393   0.76427657     3.543407 
     2921000   -831.26639    259.91017   -1091.1766    75.245847     26.77743   -1193.1998    291.62033   -46.317541    34450.393   0.76427657    3.5215489 
     2922000   -846.72872     236.4967   -1083.2254    73.043849    28.227844   -1184.4971     265.3503    -59.98823    34450.393   0.76427657    3.5654961 
     2923000   -852.77575    247.94283   -1100.7186    76.111771    26.688305   -1203.5187    278.19291    -230.7487    34450.393   0.76427657    3.5648678 
     2924000   -850.75574    265.78286   -1116.5386    71.531988    24.151451    -1212.222     298.2095   -252.12156    34450.393   0.76427657    3.5580495 
     2925000   -844.22952    253.95492   -1098.1844    74.226403    26.653872   -1199.0647     284.9385   -138.66712    34450.393   0.76427657    3.6052727 
     2926000   -834.91256     236.6633   -1071.5759    85.603532    27.060023   -1184.2394    265.53723    20.012008    34450.393   0.76427657    3.5225668 
     2927000   -824.06653    266.24309   -1090.3096    69.297817    25.456112   -1185.0635    298.72588    61.169225    34450.393   0.76427657    3.5254649 
     2928000   -814.83138    277.48406   -1092.3154     69.79343    27.894235   -1190.0031    311.33831     45.18611    34450.393   0.76427657    3.4896777 
     2929000   -810.76129    249.62016   -1060.3815    86.527929    29.441059   -1176.3504    280.07489    157.50796    34450.393   0.76427657    3.4978688 
     2930000   -811.56134     270.6922   -1082.2535    69.873938    28.742087   -1180.8696    303.71781    20.411863    34450.393   0.76427657    3.5491889 
     2931000   -814.87946     268.0845    -1082.964    72.942988    30.229546   -1186.1365    300.79195     5.707948    34450.393   0.76427657    3.5687141 
     2932000   -819.79571     267.5758   -1087.3715    76.693252    24.454894   -1188.5197    300.22119   -32.280999    34450.393   0.76427657    3.5738217 
     2933000   -826.85519    252.21961   -1079.0748     81.26345    28.080353   -1188.4186    282.99148    7.3896177    34450.393   0.76427657     3.528621 
     2934000   -834.22174     258.8557   -1093.0774    81.674612    23.234218   -1197.9863     290.4372   -141.33978    34450.393   0.76427657    3.5851291 
     2935000   -840.83298    269.61151   -1110.4445    57.837492    24.621445   -1192.9034    302.50526    -103.7777    34450.393   0.76427657    3.5777872 
     2936000   -848.75936    258.33468    -1107.094    61.174647    23.682552   -1191.9512    289.85262   -57.622893    34450.393   0.76427657    3.5959513 
     2937000   -857.65767    249.22216   -1106.8798    72.260515    22.201681    -1201.342    279.62833   -119.48813    34450.393   0.76427657    3.5637155 
     2938000   -866.97949    243.60116   -1110.5806    57.003532    31.082893   -1198.6671    273.32154   -133.46914    34450.393   0.76427657    3.5689698 
     2939000   -871.36087    246.48922   -1117.8501    65.758413     20.85743   -1204.4659    276.56196   -118.98853    34450.393   0.76427657    3.5942695 
     2940000    -865.4048    254.56368   -1119.9685    64.850562    24.875134   -1209.6942    285.62154   -252.69985    34450.393   0.76427657     3.613289 
     2941000   -848.06683    250.88704   -1098.9539    74.473567    30.511408   -1203.9389    281.49633   -86.378589    34450.393   0.76427657    3.5449868 
     2942000    -831.6176    256.39112   -1088.0087    72.197798    24.929723   -1185.1362    287.67193    86.667035    34450.393   0.76427657    3.5479392 
     2943000     -823.109    251.93798    -1075.047    63.395514    27.323738   -1165.7662    282.67549    311.09329    34450.393   0.76427657    3.5279784 
     2944000   -817.65877    262.99284   -1080.6516    78.747694    24.672271   -1184.0716    295.07909     94.11351    34450.393   0.76427657    3.5624639 
     2945000   -814.78249    271.98429   -1086.7668    75.931796    21.946855   -1184.6454    305.16754    85.393212    34450.393   0.76427657    3.5635568 
     2946000   -816.11314    257.34073   -1073.4539    72.070089    28.792506   -1174.3165     288.7374    121.93963    34450.393   0.76427657    3.5783718 
     2947000   -822.97518    259.34208   -1082.3173    78.804076    29.981059   -1191.1024    290.98292    -70.61359    34450.393   0.76427657    3.5590838 
     2948000   -833.49792    249.29482   -1082.7927    80.468182    26.999525   -1190.2604    279.70985    34.032808    34450.393   0.76427657    3.4872808 
     2949000   -843.09404    276.47371   -1119.5677    63.188756    24.147607   -1206.9041    310.20468   -176.71839    34450.393   0.76427657     3.556995 
     2950000   -851.36474    246.25693   -1097.6217    66.879631    23.275222   -1187.7765    276.30133    29.112299    34450.393   0.76427657    3.5576321 
     2951000   -856.67999    240.68698    -1097.367    72.444464    28.103847   -1197.9153    270.05182   -66.648092    34450.393   0.76427657    3.4940875 
     2952000   -854.23912    240.56575   -1094.8049     70.32235    20.994148   -1186.1214     269.9158   -44.624762    34450.393   0.76427657    3.5831435 
     2953000   -837.53985    272.97905   -1110.5189    72.105647    20.212238   -1202.8368    306.28366   -189.02757    34450.393   0.76427657    3.5647274 
     2954000   -817.98905    270.52176   -1088.5108    78.981256    26.901773   -1194.3938    303.52657   -10.064395    34450.393   0.76427657    3.5465273 
     2955000   -810.12923    273.26132   -1083.3906    76.868252    27.669166    -1187.928    306.60037    8.2058467    34450.393   0.76427657    3.5620004 
     2956000   -809.54812    256.49416   -1066.0423     67.63062    29.043247   -1162.7161    287.78754    359.15167    34450.393   0.76427657    3.5301689 
     2957000   -812.38878    265.31407   -1077.7029    74.420401    26.284258   -1178.4075    297.68352    198.14356    34450.393   0.76427657    3.5221687 
     2958000   -819.04614    255.40309   -1074.4492    74.145848    28.611608   -1177.2067    286.56336    178.07435    34450.393   0.76427657    3.5304519 
     2959000   -831.26579    249.83509   -1081.1009    66.456053    32.050067    -1179.607    280.31603    40.818231    34450.393   0.76427657    3.5509942 
     2960000   -842.13565    262.28485   -1104.4205    69.654412     27.01687   -1201.0918    294.28473   -149.22736    34450.393   0.76427657    3.5585066 
     2961000   -849.12964    249.31365   -1098.4433    72.004786    25.877299   -1196.3254    279.73098   -53.092361    34450.393   0.76427657    3.5818159 
     2962000   -850.04708    263.98839   -1114.0355    73.530127    26.559754   -1214.1254     296.1961   -330.25639    34450.393   0.76427657     3.566778 
     2963000   -846.37808    225.00873   -1071.3868    87.526528    23.034044   -1181.9474    252.46075   -7.2873415    34450.393   0.76427657    3.5264454 
     2964000   -832.66176    260.64114   -1093.3029    72.683427    24.491313   -1190.4776    292.44047    81.127522    34450.393   0.76427657    3.5509819 
     2965000   -808.25654    263.97292   -1072.2295    90.766351    20.688359   -1183.6842    296.17875    128.95681    34450.393   0.76427657    3.5527334 
     2966000   -798.33845    266.31374   -1064.6522    100.68388    32.877429   -1198.2135    298.80515   -178.25462    34450.393   0.76427657    3.5104002 
     2967000   -799.25165    272.44917   -1071.7008    86.679104    28.533339   -1186.9133    305.68914    14.051436    34450.393   0.76427657    3.5134589 
     2968000   -805.91051    262.04037   -1067.9509    70.941352    31.689127   -1170.5814    294.01041    230.19436    34450.393   0.76427657    3.5633755 
     2969000   -812.75294    249.34759   -1062.1005    78.561936    36.532981   -1177.1955    279.76907    171.58556    34450.393   0.76427657    3.4783511 
     2970000   -818.34151    273.99226   -1092.3338    74.456377    22.836806    -1189.627    307.42049    27.522439    34450.393   0.76427657    3.5250724 
     2971000   -828.62326    256.37595   -1084.9992    81.796757    27.305756   -1194.1017    287.65491   -75.421571    34450.393   0.76427657    3.4859148 
     2972000   -837.41399    257.74135   -1095.1553    69.017582    26.952872   -1191.1258    289.18689   -19.962742    34450.393   0.76427657    3.5254029 
     2973000   -843.25028     244.7262   -1087.9765    70.877607    33.709722   -1192.5638    274.58384   -99.873683    34450.393   0.76427657    3.5091106 
     2974000   -844.94398    245.83621   -1090.7802    75.188063    29.472959   -1195.4412    275.82927   -59.167311    34450.393   0.76427657    3.5415885 
     2975000   -838.75633     250.4816   -1089.2379    61.983871    25.388427   -1176.6102    281.04142    96.755723    34450.393   0.76427657    3.5614018 
     2976000   -818.44334    273.75053   -1092.1939    72.838263     28.49791     -1193.53    307.14926   -46.341959    34450.393   0.76427657    3.5349917 
     2977000   -802.22665    284.55817   -1086.7848    73.924297    24.385306   -1185.0944    319.27548    94.100094    34450.393   0.76427657     3.549133 
     2978000   -797.36467    272.15719   -1069.5219    76.988745    26.514744   -1173.0253    305.36153    221.68537    34450.393   0.76427657    3.5185091 
     2979000   -800.02307    275.49923   -1075.5223    68.765368    37.020993   -1181.3087    309.11131     77.71254    34450.393   0.76427657    3.5077791 
     2980000    -809.1479    286.78697   -1095.9349    66.253688    34.045102   -1196.2337    321.77621   -6.6007913    34450.393   0.76427657    3.5231439 
     2981000   -821.93076    253.84918   -1075.7799    80.777859    31.634962   -1188.1928    284.81987   -7.8105084    34450.393   0.76427657    3.4851533 
     2982000   -831.14517    245.14386    -1076.289    77.628515    27.277637   -1181.1952    275.05246     52.04588    34450.393   0.76427657    3.5408636 
     2983000   -834.43203    263.44624   -1097.8783    79.110006    27.450188   -1204.4385    295.58781   -152.02077    34450.393   0.76427657    3.5426186 
     2984000   -834.27097    242.72175   -1076.9927    81.221978    29.522663   -1187.7374    272.33484   -61.612673    34450.393   0.76427657    3.5297509 
     2985000   -832.63713    246.86211   -1079.4992    76.075654    31.039985   -1186.6149    276.98034   -53.010847    34450.393   0.76427657    3.5495906 
     2986000   -830.34032    258.01826   -1088.3586    65.011932    28.856822   -1182.2273    289.49758    96.308754    34450.393   0.76427657    3.5291345 
     2987000    -825.0389    257.79171   -1082.8306    73.041411     34.35929   -1190.2313     289.2434    90.134913    34450.393   0.76427657    3.5013405 
     2988000   -807.45694    281.07864   -1088.5356    81.584939    26.058974   -1196.1795    315.37143   -24.783819    34450.393   0.76427657    3.5410075 
     2989000   -787.38615    289.75469   -1077.1408    78.362157    29.966661   -1185.4697      325.106    89.166764    34450.393   0.76427657    3.5399516 
     2990000    -783.9095     271.2419   -1055.1514    86.310184    33.217019   -1174.6786    304.33457    221.95012    34450.393   0.76427657    3.4907668 
     2991000   -791.07739    295.33878   -1086.4162     77.17649    31.197868   -1194.7905    331.37137    21.137602    34450.393   0.76427657    3.5563606 
     2992000   -805.81116    260.82792   -1066.6391    94.559047    26.926213   -1188.1243    292.65004   -16.726059    34450.393   0.76427657    3.5001214 
     2993000   -817.96885    260.50625   -1078.4751     81.28344    27.059221   -1186.8178    292.28912     72.00728    34450.393   0.76427657    3.5272725 
     2994000     -824.412    265.11079   -1089.5228    73.765703    31.594673   -1194.8832    297.45544   -46.487227    34450.393   0.76427657    3.5425343 
     2995000   -828.45036    266.46983   -1094.9202    64.502848    25.604855   -1185.0279    298.98029    100.03273    34450.393   0.76427657    3.5484748 
     2996000   -831.53999    273.90046   -1105.4404     67.18953    33.092924   -1205.7229    307.31748   -123.82998    34450.393   0.76427657    3.5583834 
     2997000   -833.03548     249.8785    -1082.914    75.882678    25.651582   -1184.4482    280.36474   -7.8280653    34450.393   0.76427657    3.5462075 
     2998000   -830.44398    257.31548   -1087.7595    74.571786    27.247462   -1189.5787    288.70907   -37.211771    34450.393   0.76427657    3.5560175 
     2999000    -821.0256    248.06636    -1069.092    72.987048    31.250138   -1173.3291    278.33151    134.88041    34450.393   0.76427657    3.6087938 
     3000000   -804.53809    286.56805   -1091.1061    66.814047    30.214865    -1188.135    321.53058    75.924237    34450.393   0.76427657    3.5523815 
Loop time of 112.853 on 1 procs for 100000 steps with 300 atoms

Performance: 1531.201 ns/day, 0.016 hours/ns, 886.112 timesteps/s
99.6% CPU use with 1 MPI tasks x 1 OpenMP threads

MPI task timing breakdown:
Section |  min time  |  avg time  |  max time  |%varavg| %total
---------------------------------------------------------------
Pair    | 40.391     | 40.391     | 40.391     |   0.0 | 35.79
Bond    | 2.4422     | 2.4422     | 2.4422     |   0.0 |  2.16
Neigh   | 6.9049     | 6.9049     | 6.9049     |   0.0 |  6.12
Comm    | 0.99896    | 0.99896    | 0.99896    |   0.0 |  0.89
Output  | 0.13865    | 0.13865    | 0.13865    |   0.0 |  0.12
Modify  | 61.709     | 61.709     | 61.709     |   0.0 | 54.68
Other   |            | 0.2686     |            |       |  0.24

Nlocal:    300 ave 300 max 300 min
Histogram: 1 0 0 0 0 0 0 0 0 0
Nghost:    1724 ave 1724 max 1724 min
Histogram: 1 0 0 0 0 0 0 0 0 0
Neighs:    16333 ave 16333 max 16333 min
Histogram: 1 0 0 0 0 0 0 0 0 0

Total # of neighbors = 16333
Ave neighs/atom = 54.4433
Ave special neighs/atom = 2
Neighbor list builds = 11574
Dangerous builds = 0

unfix             tK
variable          kappa delete
variable          kzz delete
variable          kyy delete
variable          kxx delete
unfix             HACF
unfix             tH
uncompute         H
uncompute         SV
uncompute         PE
uncompute         KE

unfix             tE
variable          etadc delete
variable          eta delete
variable          etayz delete
variable          etaxz delete
variable          etaxy delete
variable          etazz delete
variable          etayy delete
variable          etaxx delete
unfix             PACF
unfix             tP
variable          pyz delete
variable          pxz delete
variable          pxy delete
variable          nzz delete
variable          nyy delete
variable          nxx delete
variable          pzz delete
variable          pyy delete
variable          pxx delete

unfix             ZMOM
unfix             NVT


###################################################
### End Analysis ##################################

unfix             hRG
undump            dANGLE
uncompute         ANGLE
uncompute         ATYPE
undump            dBOND
uncompute         BOND
uncompute         BTYPE

undump            TRJ

thermo_style      custom time etotal ke pe ebond eangle evdwl temp press vol density

unfix             tRG
variable          RG delete
uncompute         RGMOLS
uncompute         MOLS
Total wall time: 0:02:09
