LAMMPS (29 Oct 2020)
OMP_NUM_THREADS environment is not set. Defaulting to 1 thread. (src/comm.cpp:94)
  using 1 OpenMP thread(s) per MPI task
###################################################
### System ########################################

include           system.in
units             real

atom_style        full
bond_style        harmonic
angle_style       cosine/squared
pair_style        lj/gromacs 9.0 12.0
special_bonds     lj 0.0 1.0 1.0
neighbor          2.5 bin
neigh_modify      delay 1 every 1 check yes

read_data         system.data
Reading data file ...
  orthogonal box = (0.0000000 0.0000000 0.0000000) to (38.000000 38.000000 38.000000)
  1 by 1 by 1 MPI processor grid
  reading atoms ...
  300 atoms
  scanning bonds ...
  1 = max bonds/atom
  scanning angles ...
  1 = max angles/atom
  reading bonds ...
  200 bonds
  reading angles ...
  100 angles
Finding 1-2 1-3 1-4 neighbors ...
  special bond factors lj:    0.0      1.0      1.0     
  special bond factors coul:  0.0      0.0      0.0     
     2 = max # of 1-2 neighbors
     1 = max # of 1-3 neighbors
     1 = max # of 1-4 neighbors
     2 = max # of special neighbors
  special bonds CPU = 0.000 seconds
  read_data CPU = 0.013 seconds

variable          lx equal lx
variable          lx0 equal ${lx}
variable          lx0 equal 38
variable          lx delete
variable          ly equal ly
variable          ly0 equal ${ly}
variable          ly0 equal 38
variable          ly delete
variable          lz equal lz
variable          lz0 equal ${lz}
variable          lz0 equal 38
variable          lz delete
variable          vol equal vol
variable          vol0 equal ${vol}
variable          vol0 equal 54872
variable          vol delete


###################################################
### Minimize energy ###############################

thermo            0
min_style         cg
minimize          1.0e-4 1.0e-6 100 1000
WARNING: Using 'neigh_modify every 1 delay 0 check yes' setting during minimization (src/min.cpp:187)
Neighbor list info ...
  update every 1 steps, delay 0 steps, check yes
  max neighbors/atom: 2000, page size: 100000
  master list distance cutoff = 14.5
  ghost atom cutoff = 14.5
  binsize = 7.25, bins = 6 6 6
  1 neighbor lists, perpetual/occasional/extra = 1 0 0
  (1) pair lj/gromacs, perpetual
      attributes: half, newton on
      pair build: half/bin/newton
      stencil: half/bin/3d/newton
      bin: standard
Per MPI rank memory allocation (min/avg/max) = 7.642 | 7.642 | 7.642 Mbytes
Step Temp E_pair E_mol TotEng Press 
       0            0    33750.936 4.0385547e-09    33750.936    186158.09 
     100            0   -988.52514    43.068722   -945.45642   -578.68057 
Loop time of 0.0433541 on 1 procs for 100 steps with 300 atoms

98.2% CPU use with 1 MPI tasks x 1 OpenMP threads

Minimization stats:
  Stopping criterion = max iterations
  Energy initial, next-to-last, final = 
      33750.9355604529  -943.518576267628  -945.456416408449
  Force two-norm initial, final = 21015.575 7.2472992
  Force max component initial, final = 10969.805 2.3835708
  Final line search alpha, max atom move = 0.10389909 0.24765085
  Iterations, force evaluations = 100 100

MPI task timing breakdown:
Section |  min time  |  avg time  |  max time  |%varavg| %total
---------------------------------------------------------------
Pair    | 0.034194   | 0.034194   | 0.034194   |   0.0 | 78.87
Bond    | 0.0014111  | 0.0014111  | 0.0014111  |   0.0 |  3.25
Neigh   | 0.0050912  | 0.0050912  | 0.0050912  |   0.0 | 11.74
Comm    | 0.001063   | 0.001063   | 0.001063   |   0.0 |  2.45
Output  | 2.9637e-05 | 2.9637e-05 | 2.9637e-05 |   0.0 |  0.07
Modify  | 0          | 0          | 0          |   0.0 |  0.00
Other   |            | 0.001565   |            |       |  3.61

Nlocal:        300.000 ave         300 max         300 min
Histogram: 1 0 0 0 0 0 0 0 0 0
Nghost:        1247.00 ave        1247 max        1247 min
Histogram: 1 0 0 0 0 0 0 0 0 0
Neighs:        11111.0 ave       11111 max       11111 min
Histogram: 1 0 0 0 0 0 0 0 0 0

Total # of neighbors = 11111
Ave neighs/atom = 37.036667
Ave special neighs/atom = 2.0000000
Neighbor list builds = 7
Dangerous builds = 0


###################################################
### Analysis ######################################

# Structural analysis
compute           MOLS all chunk/atom molecule
compute           RGMOLS all gyration/chunk MOLS
variable          RG equal ave(c_RGMOLS)
fix               tRG all ave/time 1 1 500 c_RGMOLS[*] mode vector ave one file gyration.time

# Thermodynamics
thermo_style      custom time etotal ke pe ebond eangle evdwl temp press vol density v_RG
thermo            50

# Trajectory
dump              TRJ all custom 500 dump.lammpstrj id mol type xu yu zu
dump_modify       TRJ sort id


###################################################
### Equilibration NPT Dynamics ####################

velocity          all create 293.0 2934

timestep          20.0

fix               NPT all npt temp 293.0 293.0 $(100.0*dt) iso 1.0 1.0 $(1000.0*dt)
fix               NPT all npt temp 293.0 293.0 2000 iso 1.0 1.0 $(1000.0*dt)
fix               NPT all npt temp 293.0 293.0 2000 iso 1.0 1.0 20000
fix               ZMOM all momentum 5 linear 1 1 1 angular rescale

run               20000
Per MPI rank memory allocation (min/avg/max) = 6.642 | 6.642 | 6.642 Mbytes
Time TotEng KinEng PotEng E_bond E_angle E_vdwl Temp Press Volume Density v_RG 
           0   -684.31659    261.13983   -945.45642    26.937598    16.131123   -988.52514          293   -361.13253        54872   0.47983722    3.7629885 
        1000   -671.38789    168.04806   -839.43595    50.567677    25.100061   -915.10369    188.55064   -324.99606    54689.105   0.48144192    3.7084634 
        2000   -654.86793    192.55294   -847.42087    40.296508    27.492789   -915.21017    216.04523   -297.23375    53991.776   0.48765997    3.6858155 
        3000   -635.61685    224.73077   -860.34761    50.016234    28.231894   -938.59574    252.14888    -135.4191    52825.689   0.49842469    3.6289205 
        4000   -615.54889    251.11604   -866.66492    55.230919    28.836605   -950.73245    281.75326   -150.30587    51458.052   0.51167168    3.6240412 
        5000    -598.5946     248.8319    -847.4265    53.551591    34.149339   -935.12743    279.19045   -171.50028    50028.597   0.52629155    3.6474113 
        6000    -585.9182     273.5718      -859.49    62.711475    34.878362   -957.07984    306.94873   -245.85759    48622.717   0.54150878    3.6044596 
        7000   -576.16162    276.88599   -853.04762    70.396205     30.18659   -953.63041    310.66727   -89.125022     47353.62   0.55602144    3.5669781 
        8000   -578.04651    276.69457   -854.74108    74.664956    29.834786   -959.24082    310.45249   -361.11533    46269.652   0.56904747    3.6491275 
        9000   -590.95104    280.57189   -871.52293    83.418074    28.142149   -983.08315    314.80285   -178.07294    45213.827   0.58233575    3.6179879 
       10000   -613.72777    275.19767   -888.92544    75.243479    29.808473    -993.9774    308.77297   -418.64814     44238.89   0.59516927    3.5820006 
       11000   -635.44053     265.5917   -901.03223    76.090725     26.10602    -1003.229    297.99502   -206.84751    43170.041    0.6099051    3.5882785 
       12000   -653.72581    270.66934   -924.39515    79.294007    30.890071   -1034.5792    303.69215   -221.86566    42164.114   0.62445585    3.5423194 
       13000   -672.08839    274.92232   -947.01071    66.162905    27.611543   -1040.7852    308.46402   -32.423636    41270.361    0.6379791    3.5824387 
       14000   -689.17519    260.30878   -949.48396    61.893811    34.746603   -1046.1244    292.06756   -374.02716    40465.418   0.65066987     3.602985 
       15000   -703.69419    253.58418   -957.27837    61.478514     28.04713    -1046.804    284.52253   -95.971203    39530.493   0.66605868    3.5655263 
       16000   -716.50535    249.81381   -966.31915    64.728281    33.759676   -1064.8071    280.29216   -252.06062    38552.882   0.68294838    3.5367145 
       17000   -725.62466    268.69045    -994.3151    71.250387    32.510436   -1098.0759    301.47183   -159.20537    37584.967   0.70053615    3.5578814 
       18000   -737.23019    261.67035   -998.90054    67.237464    29.975643   -1096.1136    293.59525   -104.54523    36725.513   0.71693016    3.5892097 
       19000   -752.06943     262.7485   -1014.8179    87.079094    27.926707   -1129.8237    294.80494   -153.64742    35950.648   0.73238258    3.5969061 
       20000   -768.65551     290.0128   -1058.6683    61.993853    27.916863    -1148.579     325.3956    36.343794    35321.249   0.74543309    3.5868339 
       21000    -784.2976    295.91423   -1080.2118    71.287537    28.630821   -1180.1302    332.01703   -33.618245    34868.891   0.75510367    3.5720438 
       22000   -799.92753    264.31837   -1064.2459     77.41873    32.091424   -1173.7561    296.56634    95.020251    34555.614   0.76194936    3.5471062 
       23000   -813.89161    274.64468   -1088.5363    81.826566    31.663753   -1202.0266     308.1525     123.4396    34324.113   0.76708837    3.5254266 
       24000    -825.5137     258.8778   -1084.3915    86.380494     25.77643   -1196.5484      290.462    155.23119    34199.724   0.76987838    3.5156828 
       25000   -833.07102    272.79269   -1105.8637    67.651906    24.539355    -1198.055    306.07457    104.47775    34209.698   0.76965393    3.5683539 
       26000   -838.95753    264.57026   -1103.5278    66.793199    29.586243   -1199.9072    296.84896    12.398998    34291.207   0.76782448    3.5693455 
       27000   -841.37978    247.56525    -1088.945    63.212389    28.236314   -1180.3937    277.76926    185.39335    34395.224   0.76550244    3.5570188 
       28000   -837.88328    263.48877   -1101.3721    74.021934    30.174491   -1205.5685    295.63553   -310.34279    34533.791   0.76243086    3.5584533 
       29000   -827.23453    265.44688   -1092.6814    64.868953    28.201711   -1185.7521    297.83253   -10.491504    34595.694   0.76106661    3.5799451 
       30000   -813.50191    266.48669   -1079.9886    80.581494    27.421858   -1187.9919     298.9992   -74.442383    34639.345   0.76010755    3.5628239 
       31000   -802.24959    275.10225   -1077.3518    77.274244    29.354824   -1183.9809     308.6659   -113.90786    34717.656   0.75839303     3.562994 
       32000   -797.77028    274.44194   -1072.2122    78.587466    32.691256   -1183.4909    307.92503   -168.46172    34783.678   0.75695354    3.5213831 
       33000   -801.02579    256.16357   -1057.1894    83.822194    27.698124   -1168.7097    287.41662    28.601311    34805.461    0.7564798     3.529352 
       34000   -806.42386    281.71128   -1088.1351    63.113895    31.826392   -1183.0754    316.08126   -116.25693    34790.613   0.75680264    3.5692573 
       35000   -812.78716    283.90276   -1096.6899    58.219736    27.581991   -1182.4916    318.54011   -21.190738    34729.474   0.75813494    3.5324935 
       36000   -817.83892    266.65673   -1084.4956    73.062421    27.651131   -1185.2092    299.18998   -15.747914    34652.218   0.75982518    3.5609597 
       37000   -821.67621     259.7788    -1081.455    63.243599    25.627912   -1170.3265    291.47292      163.629    34558.973   0.76187529    3.5378842 
       38000   -823.70254    268.54544    -1092.248    62.185574    25.258932   -1179.6925    301.30913    99.638511    34504.621   0.76307542    3.5543513 
       39000   -824.89548    265.86544   -1090.7609    65.499192    31.120257   -1187.3804    298.30216    39.045931    34499.476   0.76318922     3.531321 
       40000   -824.76425    259.84911   -1084.6134    85.598367    28.469579   -1198.6813    291.55181    -167.4552     34524.55   0.76263494    3.5418486 
       41000   -820.53484    268.38179   -1088.9166     85.77822    27.357839   -1202.0527    301.12551   -218.62932    34518.943   0.76275882    3.5358976 
       42000    -813.6502     279.9518    -1093.602    63.466265    29.363644   -1186.4319    314.10711    54.531786    34465.202   0.76394816    3.5588212 
       43000   -805.15452     275.7638   -1080.9183    73.130141    34.602292   -1188.6508    309.40816   -1.1594508    34407.618   0.76522669    3.5170062 
       44000    -792.1182    265.24688   -1057.3651    81.674697    32.324626   -1171.3644    297.60813     220.1094    34425.353   0.76483247    3.5386768 
       45000   -785.59757    266.46103   -1052.0586    89.041652    30.231952   -1171.3322    298.97042    131.62983    34534.612   0.76241273    3.5258122 
       46000   -785.80291    279.99789   -1065.8008    80.536338    32.681195   -1179.0183    314.15883   -30.942799    34695.135    0.7588853    3.5260574 
       47000   -790.23582    258.46663   -1048.7025    79.746827    34.836108   -1163.2854    290.00067    146.94059    34867.587   0.75513192    3.5116265 
       48000   -800.92122    254.60827   -1055.5295     71.23645    32.866277   -1159.6322    285.67157    -26.29191    35046.559   0.75127569    3.5718105 
       49000   -815.96748    258.45237   -1074.4198    70.516528    34.673194   -1179.6096    289.98466    -346.1397     35172.88   0.74857754    3.5497171 
       50000   -827.27124    251.07557   -1078.3468    62.214753    28.710279   -1169.2718    281.70786   -132.89133    35102.831   0.75007135    3.5552113 
       51000    -830.5422    254.54242   -1085.0846    68.767208    28.791448   -1182.6433    285.59769   -249.89178    34894.174   0.75455657    3.6350217 
       52000   -829.07793    258.67554   -1087.7535    64.086362    32.419329   -1184.2592    290.23506    43.572153    34559.244   0.76186933    3.5362854 
       53000   -823.82885    250.92346   -1074.7523    71.951308    26.760076   -1173.4637    281.53719    325.50729    34254.006   0.76865836    3.4892636 
       54000   -814.91825    276.85863   -1091.7769    83.367277    25.305744   -1200.4499    310.63657    141.80499    34080.671   0.77256777    3.5456312 
       55000   -803.42278    270.86292   -1074.2857    78.133119    34.076705   -1186.4955    303.90935    342.75043    34100.519   0.77211811    3.5114322 
       56000   -786.53082    281.44859   -1067.9794    75.204412    34.047441   -1177.2313    315.78652    213.60922    34314.757   0.76729753    3.5428496 
       57000   -774.40263    293.59202   -1067.9946    85.379768    29.036959   -1182.4114     329.4115    29.682032    34614.556    0.7606519    3.5265369 
       58000   -771.97882    277.54437   -1049.5232    76.504472    33.447147   -1159.4748    311.40597    76.987506    34992.079   0.75244538    3.5557848 
       59000   -779.12395    256.33853   -1035.4625    81.959099    29.609574   -1147.0312    287.61293    32.793648     35383.38   0.74412416    3.5465453 
       60000   -795.69051     256.9535    -1052.644    63.537749    25.209791   -1141.3915    288.30293   -168.26607    35676.747   0.73800529    3.5741532 
       61000   -810.69976    243.96032   -1054.6601    67.031055    24.453203   -1146.1443    273.72452   -347.69951    35743.055   0.73663619    3.5921453 
       62000   -814.59604    255.56906   -1070.1651    63.072044     31.01872   -1164.2559    286.74957   -263.61155    35532.084   0.74100995    3.5681657 
       63000   -812.59462    269.83583   -1082.4305    67.309553    23.390572   -1173.1306    302.75696   -210.61433    35137.216   0.74933734    3.5842903 
       64000   -808.92954    259.96058   -1068.8901     84.60211    30.764739    -1184.257    291.67688   -91.463911    34709.468   0.75857193    3.5215219 
       65000   -806.26136     283.2653   -1089.5267    74.345647    33.206076   -1197.0784    317.82487    12.125175    34303.531   0.76754863    3.5192279 
       66000   -810.22111    281.77712   -1091.9982    75.180521    29.813947   -1196.9927    316.15513    325.09795    34008.384   0.77420991    3.5400243 
       67000   -823.18881     275.2457   -1098.4345    77.909239      32.9184   -1209.2621    308.82686    104.82284     33934.55   0.77589442    3.5273641 
       68000   -840.30017     272.6461   -1112.9463    64.683025    37.835187   -1215.4645    305.91009    20.234239    33978.587   0.77488885    3.5315864 
       69000   -847.78388    256.52484   -1104.3087    77.021402    29.431327   -1210.7615    287.82197    51.459328    34047.619   0.77331774    3.5243314 
       70000   -849.13996    239.03228   -1088.1722    77.728099    25.490799   -1191.3911    268.19524    214.62868    34147.495   0.77105592    3.5554376 
       71000    -847.1604    244.66741   -1091.8278    77.543168    21.912067    -1191.283    274.51788    41.807878    34282.175   0.76802676    3.5436939 
       72000   -841.04603    255.09082   -1096.1368    76.928934    27.692737   -1200.7585    286.21299   -69.061272    34426.753   0.76480138     3.519734 
       73000   -831.05463    263.95819   -1095.0128    62.047151    29.938335   -1186.9983    296.16222   -61.862838    34531.465   0.76248222    3.5648136 
       74000   -819.38827    256.86751   -1076.2558    67.630266    29.443902     -1173.33    288.20645     99.06091    34562.132   0.76180567    3.5599482 
       75000   -810.26234    258.13859   -1068.4009    86.899068    25.310146   -1180.6101     289.6326    56.078849    34584.332   0.76131666    3.5598574 
       76000   -805.84682    261.76659   -1067.6134    64.382546    27.121353   -1159.1173    293.70323    293.61414    34619.472   0.76054389    3.5650651 
       77000    -805.0387    270.89176   -1075.9305    68.218941    28.471141   -1172.6205    303.94172    149.69803    34715.796   0.75843365    3.5336618 
       78000   -807.01626    253.06209   -1060.0784    78.929791    29.717626   -1168.7258    283.93675    51.780661    34849.464   0.75552463     3.542728 
       79000   -807.44464    266.04722   -1073.4919    65.400639    27.155456    -1166.048    298.50612   -66.871415    34993.359   0.75241785    3.5429265 
       80000    -805.2993    260.60418   -1065.9035    65.409893    33.451524   -1164.7649      292.399   -112.23828    35108.848    0.7499428    3.5566052 
       81000   -803.40035    249.77206   -1053.1724     62.71216    26.472868   -1142.3574    280.24531    186.52693    35149.446   0.74907662    3.5880468 
       82000    -802.2333    274.42385   -1076.6571    67.930323     32.60382   -1177.1913    307.90473   -212.37734    35134.184     0.749402    3.6028904 
       83000   -802.71762    253.63233     -1056.35    70.415153    34.037839   -1160.8029    284.57656   -63.181303    34994.035   0.75240331    3.5520338 
       84000   -802.96497    266.09086   -1069.0558    63.898207    34.262444   -1167.2165    298.55508    87.909861     34795.23   0.75670223    3.5210189 
       85000     -805.248     268.5081   -1073.7561      76.7883    27.843799   -1178.3882    301.26724    85.776349    34604.932   0.76086344    3.4959403 
       86000   -809.87172    285.78961   -1095.6613    75.710192    24.620916   -1195.9924    320.65717   -85.692697    34447.705    0.7643362    3.5567056 
       87000   -819.17876    270.84698   -1090.0257    76.894114    29.968999   -1196.8889    303.89147    100.98181    34307.297   0.76746436    3.5210086 
       88000   -833.14602    270.11036   -1103.2564    84.973167    23.141799   -1211.3713    303.06497   -159.10479    34250.703   0.76873248    3.5331783 
       89000   -841.43063    240.65943   -1082.0901    78.933942    31.935022    -1192.959     270.0209    40.109734    34238.178    0.7690137    3.5493604 
       90000   -842.58702    244.07316   -1086.6602    72.739569    30.965584   -1190.3653    273.85113    120.59126    34238.852   0.76899857    3.5235322 
       91000   -838.14027    254.92476    -1093.065    71.988288    23.723295   -1188.7766    286.02667    184.56256     34308.89   0.76742874     3.543292 
       92000    -832.8859    259.12079   -1092.0067    72.127294    26.259585   -1190.3936    290.73464   -10.917078     34435.36   0.76461022    3.5516792 
       93000   -829.41249    248.35758   -1077.7701    81.263229    28.471885   -1187.5052    278.65826   -63.536662    34519.658   0.76274302    3.4937718 
       94000   -824.13386    267.98402   -1092.1179     68.32245    28.364406   -1188.8047    300.67922   -52.822397    34560.115   0.76185012    3.5594341 
       95000   -818.90416    263.92295   -1082.8271      68.1819     27.84631   -1178.8553    296.12268      43.3145    34594.161   0.76110035    3.5348445 
       96000   -814.40292    264.75468   -1079.1576    65.710804    25.783385   -1170.6518    297.05589    85.199689    34600.607   0.76095855    3.5674582 
       97000   -803.17522    290.37094   -1093.5462    77.134857    28.051133   -1198.7322    325.79744   -230.24909     34642.14   0.76004623    3.5561078 
       98000   -785.10376    267.35582   -1052.4596    77.536332    30.656071    -1160.652    299.97437    267.37373    34663.682    0.7595739    3.5069771 
       99000   -772.83014    295.94318   -1068.7733    74.895367    30.720679   -1174.3894    332.04952     27.65205    34775.415   0.75713339    3.5643009 
      100000   -774.22721    280.31713   -1054.5443    80.311276    33.207324   -1168.0629    314.51702   -89.751365    34934.644   0.75368244     3.533973 
      101000    -786.5871    261.21094    -1047.798    80.520587    29.616822   -1157.9354    293.07979   -48.046026    35076.717   0.75062978     3.553742 
      102000   -800.80245    250.29277   -1051.0952     72.77395    34.068173   -1157.9373    280.82956   -123.48251    35137.964   0.74932138    3.5590115 
      103000   -805.20412    244.08091    -1049.285    74.924798    36.376433   -1160.5863    273.85983   -84.295736    35060.689   0.75097292    3.5325044 
      104000     -804.451    257.40226   -1061.8533     83.56894    33.546968   -1178.9692    288.80644   -240.95001    34916.246   0.75407958    3.5328763 
      105000   -805.09164    267.77494   -1072.8666    65.715119    35.826491   -1174.4082    300.44462   -11.185509     34740.97   0.75788408    3.5034977 
      106000    -807.4971     266.8349    -1074.332     71.89537    29.099705   -1175.3271     299.3899    39.478188     34582.21   0.76136337    3.5454179 
      107000   -812.62297    266.68753   -1079.3105    81.386895    36.700093   -1197.3975    299.22455   -128.84505    34455.134    0.7641714    3.5339882 
      108000   -820.69212     261.9126   -1082.6047    81.362414    41.860476   -1205.8276    293.86705    -85.25506    34345.307   0.76661502    3.4588587 
      109000   -831.86667    262.47451   -1094.3412    81.543944    32.986367   -1208.8715    294.49752   -62.784311    34248.528   0.76878131    3.4937996 
      110000   -842.61947    257.26624   -1099.8857    65.637325    33.631038   -1199.1541    288.65382    48.580982    34193.767    0.7700125    3.5498199 
      111000   -850.30374    249.76785   -1100.0716    74.454335    31.502451   -1206.0284     280.2406   -26.756545    34144.192   0.77113051    3.5265323 
      112000   -853.26948    254.25464   -1107.5241    73.213838    29.906788   -1210.6447    285.27479    9.9989686     34081.84   0.77254127    3.5231685 
      113000    -849.0426    249.32117   -1098.3638    77.071049    25.735487   -1201.1703    279.73941    105.19046    34057.872   0.77308495    3.5423247 
      114000   -833.24629    275.50204   -1108.7483    66.770359    25.057357    -1200.576    309.11446    148.48239    34075.002   0.77269631    3.5586207 
      115000   -817.65926     278.6547    -1096.314    63.649507    24.895783   -1184.8592    312.65177    196.13869    34220.425   0.76941266    3.5742385 
      116000   -810.30017    262.30666   -1072.6068    78.375678    29.100822   -1180.0833    294.30919    33.327256    34496.195   0.76326181    3.5378923 
      117000   -807.96569     253.5136   -1061.4793    84.397251    30.327161   -1176.2037    284.44334   -74.597899    34793.481   0.75674027    3.5467279 
      118000    -807.8367    257.53965   -1065.3764    78.177592    35.999395   -1179.5533    288.96059   -252.86166    35060.403   0.75097905    3.5096661 
      119000   -806.74409    267.48344   -1074.2275    57.401929    27.139709   -1158.7692    300.11756    -92.54875    35224.168   0.74748757    3.6101634 
      120000   -806.08555    258.15489   -1064.2404    66.149327     32.85466   -1163.2444    289.65089   -227.03939    35267.577   0.74656754    3.5722093 
      121000   -799.57102    265.02283   -1064.5939    66.619274    26.765776   -1157.9789    297.35675    38.498762     35201.84   0.74796169    3.5515311 
      122000   -784.77117    261.11471   -1045.8859    80.639808    30.477713   -1157.0034    292.97182   -11.189576    35096.247   0.75021207     3.567302 
      123000   -771.48374    276.41934   -1047.9031    80.541238    33.547147   -1161.9915    310.14368    128.59559    34982.216   0.75265751      3.48997 
      124000   -766.90864    279.89662   -1046.8053    74.672933    32.982805    -1154.461     314.0452    194.85114    34923.531   0.75392228    3.5622066 
      125000   -768.44751    283.87036   -1052.3179    70.799232    28.152522   -1151.2696    318.50376    116.68705    34938.452    0.7536003    3.5455439 
      126000   -778.80294    263.52628   -1042.3292    70.985306    36.365406   -1149.6799    295.67761    175.89168    34997.541   0.75232794    3.5675637 
      127000    -794.6198    262.07671   -1056.6965    75.081008    30.871566   -1162.6491    294.05119   -70.267743    35075.616   0.75065334    3.5498569 
      128000   -807.03939    272.07924   -1079.1186    65.617664    25.179637   -1169.9159    305.27407   -62.523122    35104.948   0.75002613    3.5489227 
      129000   -812.19435      266.948   -1079.1424    62.853784    31.385258   -1173.3814     299.5168   -139.83215    35101.716   0.75009517    3.5468417 
      130000    -814.7778    254.47176   -1069.2496    80.411716    27.205442   -1176.8667     285.5184     -224.222    34970.816   0.75290289    3.5578538 
      131000    -817.0402    256.73657   -1073.7768    78.022995    28.294728   -1180.0945    288.05953   -118.55746    34713.262   0.75848902    3.5624176 
      132000   -819.59142    265.66322   -1085.2546    72.671179    32.768271   -1190.6941    298.07527    45.763727    34383.391   0.76576588    3.5375103 
      133000   -820.30675    255.60637   -1075.9131    85.667118    29.126843   -1190.7071    286.79144    199.34444    34067.168   0.77287399    3.5316394 
      134000   -825.46761    261.88556   -1087.3532    84.391631    30.344491   -1202.0893    293.83672     225.5672    33885.746   0.77701191    3.4783353 
      135000   -840.04201    251.40466   -1091.4467    82.018744    28.322319   -1201.7877     282.0771    224.14796    33860.707   0.77758647    3.5284027 
      136000   -856.59832    243.63581   -1100.2341    83.870871    28.118998    -1212.224    273.36042    35.894248    33953.406   0.77546354    3.5416151 
      137000   -864.15016    245.68317   -1109.8333    76.625015    31.880187   -1218.3385    275.65757   -106.12179    34057.056   0.77310346    3.5560348 
      138000   -862.01709    233.79659   -1095.8137    75.725305    32.313478   -1203.8525    262.32078    35.077611    34101.168    0.7721034    3.5187117 
      139000    -854.9184    255.46148   -1110.3799    65.986603    33.692875   -1210.0593    286.62887     32.90284    34117.927   0.77172414    3.5396197 
      140000   -845.81279    250.73975   -1096.5525    67.804926    33.227072   -1197.5845    281.33107    193.58445    34155.869   0.77086687    3.5311586 
      141000   -837.93801    273.49697    -1111.435    69.993841     27.07336   -1208.5022    306.86476   -30.301662    34263.838   0.76843779    3.5268116 
      142000   -834.04218    268.58098   -1102.6232    74.439909    28.707587   -1205.7707    301.34901   -94.540834    34381.071   0.76581755    3.5441748 
      143000   -830.51074    267.20464   -1097.7154    71.927736    26.196501   -1195.8396    299.80474   -13.555853    34481.385   0.76358964    3.5483446 
      144000   -827.67258    270.45744     -1098.13    66.196712    30.442678   -1194.7694     303.4544   -103.67807    34555.453    0.7619529    3.5311456 
      145000   -825.37667    255.51259   -1080.8893    75.227711    23.964019    -1180.081    286.68622    98.973108    34599.147   0.76099067    3.5143088 
      146000   -822.27945    249.46851    -1071.748    81.401397    25.671857   -1178.8212    279.90473    -15.06691     34640.39   0.76008463    3.5176326 
      147000   -817.56023    276.96441   -1094.5246    66.636113     29.06266   -1190.2234    310.75525    -102.4128    34647.561   0.75992731      3.57184 
      148000    -812.2761    258.93501   -1071.2111     96.15588    26.023647   -1193.3906    290.52618   -226.16867    34646.431    0.7599521     3.532711 
      149000   -800.98589    273.62668   -1074.6126    84.748736    25.423437   -1184.7847     307.0103    -45.82766    34608.549   0.76078393    3.5700337 
      150000   -782.18665    278.08879   -1060.2754    86.425363    24.501761   -1171.2026    312.01681    168.63759     34607.69   0.76080282    3.5023408 
      151000   -771.54957    288.16425   -1059.7138     89.70462    28.161598     -1177.58    323.32151    60.565293    34725.195   0.75822837    3.5260061 
      152000   -773.97351    288.70961   -1062.6831    70.681436    28.239456    -1161.604    323.93342    121.28293    34944.409   0.75347183    3.5605669 
      153000   -785.52299    264.96193   -1050.4849    70.181523    25.617082   -1146.2835    297.28842    99.401301    35221.939   0.74753489    3.5741701 
      154000   -800.81376    246.07366   -1046.8874    66.948826    32.463179   -1146.2994    276.09569   -214.30627    35470.914   0.74228783    3.5662684 
      155000    -809.0549    243.12436   -1052.1793    66.589786     37.99203   -1156.7611    272.78657   -271.91481    35532.601   0.74099918    3.5776047 
      156000   -809.71072    246.27183   -1055.9826    70.986738    36.361889   -1163.3312    276.31805    -210.4039    35371.915   0.74436535     3.524636 
      157000   -806.37652    263.84025   -1070.2168    72.955241    32.691829   -1175.8638    296.02989    -164.4482    35047.287   0.75126008    3.5530694 
      158000   -803.97618    259.29039   -1063.2666    79.454314    31.511087    -1174.232    290.92493    51.114053    34617.345   0.76059063     3.601842 
      159000   -803.56889    265.83742   -1069.4063     90.81551    28.039683   -1188.2615    298.27073    341.93381    34224.742   0.76931559    3.4975119 
      160000   -807.86684     266.4212    -1074.288     103.4783    27.092316   -1204.8587    298.92573    111.63654    34043.983   0.77340034    3.4876595 
      161000   -823.53537    253.35415   -1076.8895    82.713938    27.577289   -1187.1807    284.26443    278.73419    34089.042   0.77237805    3.4866776 
      162000   -842.77454    254.46032   -1097.2349    77.900686    25.785042   -1200.9206    285.50557   -57.285738    34308.815   0.76743042    3.5593296 
      163000   -849.69246    241.64311   -1091.3356    71.174977    24.548015   -1187.0586     271.1246   -54.424882    34531.919   0.76247219    3.5620917 
      164000   -848.12812    246.99435   -1095.1225     73.54158    23.805177   -1192.4692    277.12872   -190.11898    34676.929   0.75928372    3.5240022 
      165000   -841.09272    240.28104   -1081.3738    66.372126    28.941999   -1176.6879    269.59635   -60.096504    34732.401   0.75807107    3.5565637 
      166000    -829.8111    248.04395   -1077.8551    73.144922    27.654127   -1178.6541    278.30637   -26.006758     34719.47    0.7583534    3.5671615 
      167000    -819.8884    269.86644   -1089.7548    71.841019    23.698023   -1185.2939     302.7913   -71.338731    34659.515   0.75966522    3.5945768 
      168000   -814.68093    261.69937   -1076.3803    69.787003    23.235181   -1169.4025    293.62781    198.59871    34579.942    0.7614133    3.5475373 
      169000   -812.77647    259.08028   -1071.8567    78.621444    26.848367   -1177.3266    290.68918    41.810084     34565.06   0.76174113    3.5504347 
      170000   -812.09115    261.97237   -1074.0635    80.119699    29.545121   -1183.7283    293.93412    -36.03571    34561.358   0.76182274    3.5593856 
      171000   -813.19964    273.92739    -1087.127    65.138512    32.074852   -1184.3404     307.3477    1.0253172    34566.973   0.76169897     3.554506 
      172000   -821.45478    255.61973   -1077.0745    67.737027    35.174906   -1179.9864    286.80643    101.07437     34564.43   0.76175502    3.5036642 
      173000   -836.69266    252.22597   -1088.9186    67.864939    29.912809   -1186.6964    282.99861   -30.615636    34568.193   0.76167209    3.5326816 
      174000   -851.71938    244.18878   -1095.9082    60.756963    33.024383   -1189.6895    273.98085   -149.85229    34556.781   0.76192362     3.557388 
      175000   -856.25597    239.58806    -1095.844    74.870004    27.847116   -1198.5611    268.81883    -205.3797    34450.347   0.76427758    3.5885509 
      176000    -852.8762    239.79955   -1092.6757    69.112668     26.84421   -1188.6326    269.05612    56.596108    34215.883    0.7695148    3.5864601 
      177000   -844.19302    248.68917   -1092.8822    83.093972    23.058293   -1199.0345    279.03031    155.78048    33950.655   0.77552635    3.5615746 
      178000   -836.49437    256.74851   -1093.2429     79.70245    28.188511   -1201.1338    288.07292    285.15302    33774.315   0.77957548     3.542906 
      179000   -830.81762    255.38472   -1086.2023     74.86987    36.129898   -1197.2021    286.54275    380.69667    33731.367   0.78056807    3.5005105 
      180000   -825.23252    269.57583   -1094.8084    83.363554    33.507155   -1211.6791    302.46524    112.11784    33894.005   0.77682257    3.4983667 
      181000   -817.53828    263.02595   -1080.5642    90.238064    31.344556   -1202.1469    295.11624    6.5596468    34193.784   0.77001212    3.5202022 
      182000   -796.93616    259.53763   -1056.4738    82.230063    26.773995   -1165.4779    291.20233    145.36895    34568.394   0.76166766    3.5526197 
      183000   -782.35983    269.09485   -1051.4547    80.095191    29.770328   -1161.3202    301.92557    39.754761    34960.314   0.75312904    3.5241795 
      184000   -776.62853    289.56627   -1066.1948     67.62521    30.675141   -1164.4951    324.89459   -182.29968    35310.186   0.74566665    3.5277586 
      185000   -777.27777    273.21921    -1050.497    77.851353    29.155284   -1157.5036    306.55312   -204.78693    35579.272   0.74002717    3.5131786 
      186000   -779.56927    270.75176    -1050.321    66.193404    36.030689   -1152.5451    303.78463   -402.90586    35761.876   0.73624852    3.5573309 
      187000    -785.3873    257.69817   -1043.0855    60.913931    31.786382   -1135.7858    289.13845   -109.46456     35746.48   0.73656561    3.5393094 
      188000   -793.51997    253.47263   -1046.9926    65.394472    30.870264   -1143.2573    284.39737   -118.07573    35554.218   0.74054865    3.5904496 
      189000   -804.21229    261.80191   -1066.0142    68.283449    29.085193   -1163.3828    293.74287   -163.16609    35218.387   0.74761029    3.5422097 
      190000   -816.07285    263.13061   -1079.2035    74.473895    22.450802   -1176.1282    295.23366   -72.696714    34774.726    0.7571484    3.5910825 
      191000   -829.58393    259.42527   -1089.0092    77.607594    32.858256   -1199.4751    291.07626   -16.573607    34332.557    0.7668997    3.4788068 
      192000   -838.59017    246.12371   -1084.7139    80.561478    31.820033   -1197.0954    276.15185    215.09923    33997.441   0.77445912     3.513058 
      193000   -844.16157    265.20098   -1109.3626    84.442607    31.654379   -1225.4595    297.55663   -3.7889891    33797.983   0.77902957    3.4995724 
      194000   -848.24112    269.05056   -1117.2917    71.101815    30.829074   -1219.2226    301.87588    204.64657    33683.231   0.78168356    3.5065015 
      195000   -849.94618    247.49461   -1097.4408    76.859323    26.188854    -1200.489    277.69001     330.0469    33728.398   0.78063678    3.5388437 
      196000   -849.98121    254.67883     -1104.66    64.628404    30.121739   -1199.4102    285.75073    160.90829    33933.483   0.77591883    3.5764996 
      197000   -848.68654     254.6777   -1103.3642    69.571033    30.400309   -1203.3356    285.74947    84.637541    34213.281   0.76957332    3.5397856 
      198000   -842.54667    252.43896   -1094.9856    67.802613    24.761265   -1187.5495    283.23759   -103.18914    34512.228   0.76290722    3.5706435 
      199000   -833.94481    259.76537   -1093.7102    77.249195    26.049474   -1197.0089    291.45786    -271.8778    34686.964   0.75906407    3.5859167 
      200000   -824.70117    256.04362   -1080.7448    73.192335    27.931342   -1181.8685    287.28203   -21.898235    34738.829   0.75793078    3.5276573 
      201000   -818.66446    255.55983   -1074.2243    77.317369    31.946958   -1183.4886    286.73922    -92.39754    34758.058   0.75751149    3.5101536 
      202000   -814.61949    246.59452    -1061.214    84.837923     30.87162   -1176.9236    276.68011   -60.936976     34768.89   0.75727547    3.5212875 
      203000   -812.44222    256.04523   -1068.4875    68.492353    31.114558   -1168.0944    287.28384    93.528828    34750.339   0.75767975    3.4909448 
      204000    -809.3778    266.27587   -1075.6537    58.694376    31.948781   -1166.2968    298.76266    80.675694    34728.958   0.75814622    3.5618078 
      205000   -808.71482    279.04865   -1087.7635    62.149099    31.956519   -1181.8691    313.09378   -99.494537    34672.628   0.75937792    3.5481443 
      206000   -811.09016     274.1366   -1085.2268    70.533513    33.345609   -1189.1059    307.58244   -23.046345    34596.654    0.7610455    3.5731499 
      207000   -817.74041    262.05676   -1079.7972    63.073461    30.751021   -1173.6217     294.0288    114.17786    34537.819   0.76234195    3.5421175 
      208000   -826.16147     262.2777   -1088.4392    83.239484    29.212456   -1200.8911     294.2767   -233.99432    34518.486   0.76276891    3.5539986 
      209000   -838.00954    269.76653   -1107.7761    68.553897    29.815769   -1206.1457     302.6792   -117.28202    34492.825   0.76333637    3.5163486 
      210000   -854.76199    244.83106   -1099.5931    76.687444    29.999238   -1206.2797     274.7015   -220.95315    34424.187   0.76485839    3.5621512 
      211000   -866.44439     245.6423   -1112.0867    62.726757    37.323217   -1212.1367    275.61171    -140.5452    34235.727   0.76906876    3.5192157 
      212000   -867.51184    244.03809   -1111.5499    68.950625    28.042923   -1208.5435    273.81178    28.382842    33972.176   0.77503509    3.5645641 
      213000   -862.36341    255.83722   -1118.2006    77.687005     36.08653   -1231.9742    287.05045   -65.328573    33728.538   0.78063354    3.5083517 
      214000   -852.13602     262.5117   -1114.6477     77.03479    31.789364   -1223.4719    294.53925    160.81441    33534.561   0.78514904    3.5061625 
      215000   -841.54219    272.33641   -1113.8786    74.496172    35.248375   -1223.6231    305.56262    287.23659    33451.221   0.78710514    3.5082371 
      216000   -836.77968    271.87788   -1108.6576    82.229735    30.763653    -1221.651    305.04815      238.561    33519.317   0.78550611    3.5378147 
      217000   -836.70702    259.51471   -1096.2217    75.782582    31.996588   -1204.0009    291.17661    251.30113    33761.781   0.77986489    3.5057917 
      218000   -837.68737     255.0846    -1092.772    73.397919    36.825449   -1202.9953    286.20601    6.7076874    34171.218   0.77052062    3.4892873 
      219000   -834.83313     256.4719    -1091.305    67.662865    25.897832   -1184.8657    287.76256   -69.806813    34628.777   0.76033954    3.5495948 
      220000   -827.90657    263.65424   -1091.5608    52.856292    35.974539   -1180.3916    295.82118   -246.89285    35012.507   0.75200636     3.583736 
      221000   -817.91483    246.58448   -1064.4993     68.15743    27.330778   -1159.9875    276.66884   -176.84989    35197.151   0.74806135    3.5620369 
      222000   -803.88967    255.53102   -1059.4207    70.717017    35.090996   -1165.2287    286.70689   -217.67711    35211.108   0.74776483    3.5418433 
      223000   -794.16335    273.02766    -1067.191    68.325564    28.640518   -1164.1571     306.3382   -107.38634     35069.43   0.75078575    3.5478717 
      224000   -790.93779    270.09234   -1061.0301    79.037038    20.454083   -1160.5213    303.04476      69.8537    34871.248   0.75505263    3.5532917 
      225000    -794.9218    275.77353   -1070.6953    75.233835    29.204671   -1175.1338    309.41908    8.6698388    34715.474   0.75844069    3.5072767 
      226000   -804.68393    265.56815   -1070.2521    79.317649     27.11086   -1176.6806     297.9686    37.602841    34629.545   0.76032267    3.5106564 
      227000    -818.1578    264.51248   -1082.6703    84.039029    24.404037   -1191.1133    296.78413   -68.419324    34554.783   0.76196768    3.5609328 
      228000    -828.3034    255.33023   -1083.6336    78.790078    24.133766   -1186.5575    286.48161     45.36484    34469.064   0.76386257    3.5330319 
      229000   -830.92978    256.65761   -1087.5874    77.159041    20.541721   -1185.2882    287.97094    37.801047    34415.678   0.76504748    3.5767089 
      230000   -832.44213    258.11687    -1090.559    75.393581    24.880449    -1190.833    289.60822    88.132872    34376.708   0.76591475    3.5573936 
      231000   -832.97801    252.89318   -1085.8712    75.044516    33.551825   -1194.4675    283.74722   -15.971149    34362.795   0.76622487    3.5352527 
      232000   -833.50172    276.88851   -1110.3902    61.535845    30.816783   -1202.7429    310.67009   -95.324438    34354.705   0.76640531    3.5652012 
      233000   -835.35058    248.41031   -1083.7609    67.707724     25.09245   -1176.5611    278.71743     171.6011    34350.335   0.76650281    3.5868768 
      234000   -837.14932    245.06073     -1082.21    84.375878    26.629191   -1193.2151    274.95919    -46.12776    34386.795   0.76569008    3.5186188 
      235000   -834.41869    262.91036   -1097.3291    73.627469    32.239551   -1203.1961    294.98654   -171.32729    34397.476   0.76545233    3.5216665 
      236000   -822.03235     255.9689   -1078.0012    88.117118    31.080414   -1197.1988     287.1982    -114.7702     34388.97   0.76564166    3.5069009 
      237000   -805.73902    288.04279   -1093.7818    78.771769    26.856702   -1199.4103    323.18524   -38.956956    34388.353    0.7656554    3.5711579 
      238000   -799.50763    271.92363   -1071.4313    68.702963    31.707658   -1171.8419    305.09948    219.20145    34437.658    0.7645592    3.5655352 
      239000   -800.39572    265.94162   -1066.3373    81.630656    30.972773   -1178.9408    298.38763    81.130978    34570.791   0.76161486    3.5257911 
      240000   -807.37596    267.04116   -1074.4171     81.29191    32.021434   -1187.7305    299.62132   -174.06542    34759.223    0.7574861    3.5267282 
      241000   -817.43754    243.13017   -1060.5677    74.458529    29.695071   -1164.7213    272.79308    101.35146    34862.418   0.75524388    3.5595145 
      242000   -826.30975    255.46035   -1081.7701    71.463749     29.80094   -1183.0348    286.62761   -172.35544    34891.528   0.75461378    3.5434392 
      243000   -833.67092    240.61406    -1074.285    77.060653    34.529509   -1185.8751       269.97   -202.73162     34824.14   0.75607404    3.4931584 
      244000   -839.24708    240.45928   -1079.7064     70.68007    33.453393   -1183.8398    269.79634   -55.120946    34642.955   0.76002834    3.5336239 
      245000   -839.57347    248.80472   -1088.3782    74.237726    30.261561   -1192.8775    279.15996    55.159862    34376.025   0.76592997    3.5492194 
      246000   -829.11013    257.81987     -1086.93    88.433188    41.478663   -1216.8419      289.275   -102.32415    34127.516   0.77150731     3.483474 
      247000   -813.84505    270.54508   -1084.3901    78.178222    34.910012   -1197.4784    303.55273     251.2173    33941.962   0.77572499    3.5229306 
      248000   -806.69327    297.80375    -1104.497    78.051402    29.735805   -1212.2842    334.13708    197.66293    33928.473   0.77603339    3.4943287 
      249000   -810.14119    275.01657   -1085.1578    77.060064    31.754062   -1193.9719    308.56977     166.2504    34118.388   0.77171371    3.5089896 
      250000   -820.80692     270.4394   -1091.2463     64.43164    31.218512   -1186.8965    303.43416    48.990421    34435.538   0.76460625    3.5426227 
      251000   -832.55488    242.96387   -1075.5188    64.810032    35.986689   -1176.3155     272.6065   -52.523361    34789.756   0.75682128    3.5493871 
      252000   -837.86994     247.6324   -1085.5023    65.566893    23.779521   -1174.8487    277.84461   -203.58391    35049.382   0.75121519    3.6059832 
      253000   -835.32973    239.20017   -1074.5299     64.88403    32.112091    -1171.526    268.38361   -268.03547    35128.195   0.74952977    3.5732457 
      254000   -824.26083    258.79284   -1083.0537    71.526325    28.533851   -1183.1139    290.36668   -261.69857     35003.96   0.75218998     3.563432 
      255000   -812.98805    263.57428   -1076.5623    77.232259    26.307427    -1180.102    295.73147   -77.819181    34769.508   0.75726202    3.5430033 
      256000   -808.89653    273.94358   -1082.8401    68.806119    29.291016   -1180.9372    307.36587    143.03907    34505.108   0.76306465    3.5151365 
      257000   -810.59229    262.50916   -1073.1015     94.56284    27.150544   -1194.8148     294.5364   -47.357254    34305.265   0.76750982    3.5873681 
      258000   -814.97764    269.71202   -1084.6897    82.453339    29.550704   -1196.6937    302.61804    145.23832    34125.013    0.7715639    3.5899501 
      259000   -824.79043    259.34121   -1084.1316    75.488644    23.383791   -1183.0041    290.98194    228.57769    34068.295   0.77284841    3.5777129 
      260000   -838.46437    272.47883   -1110.9432    71.349238    28.333222   -1210.6257    305.72241   -18.020187    34111.354   0.77187285    3.5295451 
      261000   -847.96063    246.99602   -1094.9566    96.568965     23.42573   -1214.9513    277.13058   -151.04148    34186.261   0.77018158    3.5269147 
      262000   -851.35385     260.0859   -1111.4397    66.540353    21.203172   -1199.1833    291.81749   -8.4962838    34234.452   0.76909741    3.5516512 
      263000   -850.13447    256.58279   -1106.7173    79.425035    22.062214   -1208.2045    287.88698   -136.12686    34271.225   0.76827217    3.5453033 
      264000   -845.41847    256.56899   -1101.9875    73.087155    24.211643   -1199.2863     287.8715   -43.030979    34253.554   0.76866851    3.5772717 
      265000   -837.49849    263.79569   -1101.2942     82.17332    27.418645   -1210.8862    295.97989   -131.14996    34237.013   0.76903987    3.5466724 
      266000   -826.22234    271.59387   -1097.8162    75.005923    29.708482   -1202.5306    304.72948   -113.04089    34250.601   0.76873477    3.5711477 
      267000   -809.71738    264.46517   -1074.1826    93.444921    36.514609   -1204.1421    296.73105   -43.760619    34263.479   0.76844584    3.4716533 
      268000   -791.91236    304.59521   -1096.5076    85.615663    28.266278   -1210.3895    341.75713   -11.572321    34276.184   0.76816101    3.4872207 
      269000   -790.52005    283.23945   -1073.7595    73.773856    30.582533   -1178.1159    317.79587    226.66531    34370.691   0.76604884    3.5222941 
      270000    -797.6375    268.36109   -1065.9986    81.841631    33.252542   -1181.0928    301.10229   -27.120277    34571.985   0.76158856    3.5491341 
      271000    -803.6523    259.06809   -1062.7204     82.95333    31.357669   -1177.0314     290.6755   -168.91732    34805.106   0.75648751     3.553635 
      272000    -807.2516    253.43952   -1060.6911    70.154675    29.272646   -1160.1184    284.36022    29.888759    34963.584   0.75305861    3.5388806 
      273000   -809.13256    261.42155   -1070.5541    64.923516    32.449435   -1167.9271    293.31609   -198.69787    35051.685   0.75116582    3.5678983 
      274000   -809.15424    261.78654   -1070.9408    72.230804    25.859616   -1169.0312    293.72561   -87.007939    35020.428   0.75183627    3.5511607 
      275000    -807.3685    248.85854    -1056.227    83.351809    28.954903   -1168.5337    279.22034   -58.466037    34865.409    0.7551791    3.5290504 
      276000   -803.31419    280.77148   -1084.0857      70.8409    28.687852   -1183.6144     315.0268   -5.9865386    34634.479   0.76021435    3.5306985 
      277000   -801.07734    254.02105   -1055.0984    85.973253    29.209215   -1170.2809     285.0127    300.02112    34442.747   0.76444622    3.5540299 
      278000   -808.29735    274.00709   -1082.3044    72.181736    30.569918   -1185.0561    307.43712     135.7414    34368.627   0.76609484    3.5290973 
      279000   -825.81317    260.40908   -1086.2222    73.760832    25.168224   -1185.1513    292.18009    150.85123    34386.174   0.76570392    3.5394662 
      280000   -839.05391    256.65444   -1095.7084    69.550323    29.795977   -1195.0547    287.96738    -145.0102    34491.568   0.76336419    3.5404852 
      281000   -844.38531    246.81927   -1091.2046    64.780461     29.42476   -1185.4098    276.93227    5.3548637    34562.967   0.76178727    3.5343263 
      282000   -844.59661    246.85812   -1091.4547     64.47586     27.26272   -1183.1933    276.97586    53.359348    34569.356   0.76164647    3.5462538 
      283000   -840.63566     243.3473    -1083.983    65.145217    26.310145   -1175.4383    273.03671    129.38843    34531.613   0.76247896    3.5794141 
      284000   -831.97591    263.25294   -1095.2289    80.100664    25.744258   -1201.0738    295.37092   -123.26699    34454.958   0.76417531    3.5241544 
      285000   -817.23113     258.4441   -1075.6752    79.507858     31.93617   -1187.1193    289.97538    72.334851     34373.31   0.76599048    3.5197197 
      286000   -803.49252    276.44454   -1079.9371    82.167695     28.53834   -1190.6431    310.17196    30.097396      34353.4   0.76643442    3.5105964 
      287000   -799.90489    283.33834   -1083.2432     71.73091    35.526386   -1190.5005    317.90683    72.846056    34372.009   0.76601946    3.5359657 
      288000    -803.2252     251.2381   -1054.4633    89.163095    32.421336   -1176.0477    281.89023    120.80865    34449.459   0.76429729    3.5165095 
      289000   -809.46409    276.71921   -1086.1833    73.218226    28.973465    -1188.375    310.48014   -9.8906489    34550.339   0.76206568    3.5266242 
      290000   -818.42332    258.01531   -1076.4386    82.246216    31.361886   -1190.0467    289.49428   -184.12576    34645.509   0.75997232    3.5146851 
      291000   -826.92127    261.96389   -1088.8852     74.51791    30.295312   -1193.6984    293.92461   -154.66715    34675.779   0.75930891    3.5596487 
      292000   -833.40715    263.07192   -1096.4791    67.670558    31.411052   -1195.5607    295.16782   -185.26419    34617.428    0.7605888    3.5577558 
      293000   -835.92644    250.62099   -1086.5474    71.057466    33.466946   -1191.0718    281.19782   -108.36111    34495.192   0.76328399    3.5436364 
      294000   -832.68916    276.59243   -1109.2816    67.608866    33.319981   -1210.2104    310.33789   -162.02262    34355.827   0.76638026    3.5624969 
      295000   -826.61516     269.6784   -1096.2936    71.818226    33.908258     -1202.02    302.58031   -7.2092271    34176.636   0.77039846    3.5424373 
      296000   -819.17498    281.27521   -1100.4502    74.496487    33.836699   -1208.7834    315.59198    66.039969      33992.7   0.77456713     3.538842 
      297000   -811.70376    278.79107   -1090.4948    100.63329     31.78648   -1222.9146    312.80478   -2.6852305    33872.443   0.77731707    3.4983817 
      298000   -809.81222    271.43935   -1081.2516    83.255008    27.064092   -1191.5707    304.55611    383.75082     33879.81   0.77714805     3.574628 
      299000   -821.06121    266.69825   -1087.7595     67.83074    35.621435   -1191.2116    299.23657    182.04936    34087.733   0.77240771    3.5560098 
      300000   -836.67795    259.92619   -1096.6041    76.520215    25.420012   -1198.5444    291.63829    -87.79328    34362.523   0.76623092    3.5362155 
      301000   -846.22506     256.2371   -1102.4622    73.263652    30.707291   -1206.4331    287.49912   -348.25713    34629.494   0.76032378    3.5642587 
      302000   -847.62168    241.86263   -1089.4843    63.078194    28.021612   -1180.5841     271.3709   -150.59454    34802.165   0.75655144    3.5691191 
      303000   -841.59708    243.07086   -1084.6679    64.181511    24.934124   -1173.7836    272.72655   -62.083483    34839.279   0.75574549    3.5736206 
      304000   -828.08664     260.3711   -1088.4577    66.176869    25.556852   -1180.1915    292.13749   -70.717082    34757.969   0.75751343    3.5702712 
      305000   -816.23035    255.17591   -1071.4063    81.425537    28.141289   -1180.9731    286.30846   -31.608468    34603.776   0.76088887      3.53404 
      306000   -810.32268    274.61348   -1084.9362    74.744084    24.336028   -1184.0163     308.1175    71.469097    34480.828   0.76360196     3.546334 
      307000   -812.36053    279.90122   -1092.2617    65.757208     27.66847   -1185.6874    314.05036    73.473911    34428.684   0.76475847    3.5465145 
      308000   -816.57062    261.64733    -1078.218    74.315298    25.487672   -1178.0209    293.56942    96.260667     34450.16   0.76428173    3.5381988 
      309000    -821.2111     250.3586   -1071.5697    86.079131    27.554615   -1185.2034    280.90342   -42.997247    34557.697   0.76190344    3.5229851 
      310000   -823.79821     263.2039   -1087.0021    65.704671    28.406195    -1181.113     295.3159   -17.211344    34657.041   0.75971944    3.5381968 
      311000   -828.06938    258.33355   -1086.4029    68.448516    29.350002   -1184.2014    289.85134    -109.5307    34703.017   0.75871294    3.5635898 
      312000   -838.06571    248.33272   -1086.3984    83.918988    27.621024   -1197.9384    278.63038   -281.53562    34665.584   0.75953222    3.5267399 
      313000      -853.81    258.57088   -1112.3809    64.944296    27.902085   -1205.2273    290.11763   -136.40015    34515.018   0.76284556    3.5469738 
      314000   -864.84403    238.93828   -1103.7823    67.125546    25.182553   -1196.0904    268.08977    -33.75251    34291.066   0.76782763    3.5549825 
      315000   -869.75684    261.11062   -1130.8675    65.040171    23.883784   -1219.7914    292.96723    -5.693677     34005.48   0.77427604    3.5728006 
      316000   -870.02281     253.9187   -1123.9415    72.892656    24.832992   -1221.6672    284.89787    22.991316    33710.364   0.78105439    3.5604957 
      317000   -865.86968    280.93819   -1146.8079    65.066776    28.023741   -1239.8984    315.21385    96.151466    33454.189   0.78703531    3.5159933 
      318000   -855.23643    257.04502   -1112.2815    87.653081    31.320574   -1231.2551    288.40561    344.58115    33349.988   0.78949437    3.4581039 
      319000   -835.99344    254.71231   -1090.7058    81.807962    25.952835   -1198.4665     285.7883     564.4293    33451.101   0.78710797     3.512308 
      320000   -824.19417    287.43053   -1111.6247    77.383012    33.309118   -1222.3168    322.49828    114.97286    33790.203   0.77920894    3.5293012 
      321000   -823.10165    258.75935    -1081.861    81.490422    34.282257   -1197.6337     290.3291    43.670627    34290.472   0.76784092    3.4907165 
      322000   -823.18641    257.50438   -1080.6908    68.725484    30.845927   -1180.2622    288.92101   -127.19583    34830.113   0.75594437    3.5729974 
      323000   -819.62532    252.30536   -1071.9307    66.949391    28.481124   -1167.3612    283.08769    -275.6874    35250.622   0.74692662    3.5753188 
      324000   -809.26196    252.21088   -1061.4728    63.021828    25.977564   -1150.4722    282.98168    -147.4267     35452.66   0.74267002     3.596703 
      325000   -793.71933     264.9803   -1058.6996    72.426051    31.066565   -1162.1922    297.30903   -324.03815    35446.965   0.74278935    3.5370446 
      326000   -783.54745    259.68984   -1043.2373     75.20058    33.175119    -1151.613     291.3731   -132.70173    35252.547   0.74688583    3.5505185 
      327000   -782.20029    288.15598   -1070.3563    76.899001    30.232264   -1177.4875    323.31224   -161.23966    34980.449   0.75269555    3.5368397 
      328000   -787.33514    279.12753   -1066.4627    91.103526    30.434464   -1188.0007    313.18228   -143.41703     34723.23   0.75827129    3.5136112 
      329000   -795.20149    291.83387   -1087.0354    68.129796    35.058718   -1190.2239    327.43885   -74.236365    34503.901   0.76309133    3.5275485 
      330000   -808.27309    280.55339   -1088.8265    72.448689     26.54618   -1187.8214    314.78211    220.50891    34271.895   0.76825714    3.5306504 
      331000   -821.44817    275.22675   -1096.6749    89.358095    28.760931    -1214.794    308.80559   -27.417198    34138.022   0.77126987    3.4975307 
      332000   -832.15269    260.86934    -1093.022    70.107772    27.647291   -1190.7771    292.69652    207.56386    34109.946    0.7719047    3.5393698 
      333000   -839.99837    265.89756   -1105.8959    69.517444    28.688042   -1204.1014     298.3382   -2.5699105    34148.975    0.7710225    3.5730193 
      334000   -845.11177    242.58739   -1087.6992    78.053242    34.214327   -1199.9667    272.18409   -3.2497758    34196.559   0.76994963    3.5225833 
      335000   -847.73956    252.14285   -1099.8824     74.76085    27.709076   -1202.3523    282.90536    9.3721486    34210.366   0.76963888     3.524197 
      336000   -848.07908    254.90687    -1102.986    70.707597    32.196313   -1205.8899     286.0066   -31.427025    34212.193   0.76959778    3.5162598 
      337000   -841.00179    270.05894   -1111.0607    63.029962    26.961757   -1201.0525    303.00729    31.590629    34197.208   0.76993502    3.5712039 
      338000   -826.00135    249.07315   -1075.0745    74.618248    29.834448   -1179.5272    279.46114    239.43716    34190.563   0.77008466    3.5190555 
      339000   -808.57217    255.99697   -1064.5691    79.511704    35.590202    -1179.671    287.22969    189.53828    34245.128   0.76885764    3.5074629 
      340000   -801.61586    270.12162   -1071.7375    87.243611    29.365965   -1188.3471    303.07761    93.026355    34361.944   0.76624383    3.4986301 
      341000   -801.73944    274.50832   -1076.2478     68.89627    29.380187   -1174.5242    307.99951    114.18717    34576.886   0.76148061    3.5799749 
      342000   -807.66763    273.88377   -1081.5514    68.047329    32.940214   -1182.5389    307.29876   -230.64414    34827.357   0.75600421    3.5630888 
      343000   -815.33056    263.51616   -1078.8467    75.184589    28.849209   -1182.8805    295.66625   -273.60108    34975.624   0.75279937    3.5595897 
      344000   -819.94953    255.90291   -1075.8524    79.831317    35.108669   -1190.7924    287.12416   -404.04996    34996.963   0.75234036    3.5250661 
      345000   -821.36696    268.97201    -1090.339    64.387586    23.744821   -1178.4714    301.78774   -43.002714    34864.212   0.75520503    3.5323249 
      346000    -819.9211    246.97235   -1066.8934    75.827182    29.836983   -1172.5576    277.10403    126.84557    34671.755   0.75939704    3.5161598 
      347000   -815.85714    273.57533   -1089.4325    81.201647    30.811353   -1201.4455    306.95269   -120.13506    34448.397   0.76432085    3.5244491 
      348000   -809.19704    274.25669   -1083.4537    83.899099    26.351629   -1193.7045    307.71717    165.89386    34199.258   0.76988887    3.5039207 
      349000   -801.36884    282.70955   -1084.0784    72.754652    21.143296   -1177.9763    317.20132     412.7432    34053.924   0.77317458     3.566975 
      350000   -807.10946    293.79958    -1100.909    81.915613    24.832649   -1207.6573    329.64438    2.0691036     34086.23   0.77244177    3.5419259 
      351000   -824.82098    271.31427   -1096.1352    77.668684    37.420181   -1211.2241    304.41577   -96.674207     34161.58     0.770738    3.5067768 
      352000   -837.80498    263.16646   -1100.9714    79.867412    30.723835   -1211.5627    295.27389   -91.662596    34224.254   0.76932657    3.4972036 
      353000   -844.36455    247.71346    -1092.078    79.212643     27.78162   -1199.0723    277.93556   -118.63056    34264.141   0.76843099    3.5342449 
      354000   -846.13259    251.23823   -1097.3708    66.054821    32.663443   -1196.0891    281.89037   -61.189684    34286.906   0.76792078    3.5397751 
      355000   -842.24692     247.9431     -1090.19    71.150379    28.239417   -1189.5798    278.19322    73.036957    34288.802   0.76787833    3.5393093 
      356000   -834.94266    264.28521   -1099.2279    78.253511    24.540032   -1202.0214    296.52913   -94.188031    34285.338   0.76795591    3.5444895 
      357000   -825.08216    249.92679    -1075.009     86.58933     26.52202   -1188.1203    280.41893    98.460302    34295.572   0.76772674    3.5294299 
      358000   -813.01743    271.26992   -1084.2874    85.184347    18.452041   -1187.9237    304.36601     38.74741    34341.191    0.7667069    3.5901117 
      359000    -807.5825    279.41018   -1086.9927    65.188447    28.716159   -1180.8973    313.49942    117.27086    34419.133    0.7649707    3.5615732 
      360000   -807.60473    269.90141   -1077.5061    72.519606    31.236577   -1181.2623    302.83054   -29.208738    34559.496   0.76186377    3.5706191 
      361000   -810.64151     259.7464   -1070.3879    67.841083    32.051031     -1170.28    291.43657    19.490047    34726.253   0.75820528    3.5642044 
      362000    -818.6645    248.47077   -1067.1353    76.404652     26.71101   -1170.2509    278.78526   -54.102944    34864.366    0.7552017    3.5838191 
      363000   -829.53365    244.22505   -1073.7587    71.091061    31.603144   -1176.4529    274.02155   -185.02704      34897.4    0.7544868    3.5360824 
      364000    -837.4403    248.55023   -1085.9905    64.996541     24.46023   -1175.4473    278.87443   -90.481647    34772.413   0.75719876    3.6082881 
      365000   -842.66103    258.60573   -1101.2668    72.816245    21.898206   -1195.9812    290.15673   -149.73985      34506.6   0.76303166    3.5997349 
      366000    -842.8843     268.0588   -1110.9431    65.885501    22.728974   -1199.5576    300.76312    93.691443    34185.417   0.77020058    3.5757441 
      367000   -841.32377    261.60986   -1102.9336    64.268569    29.467618   -1196.6698    293.52738    309.00295    33925.436   0.77610285    3.5451074 
      368000   -839.26723    253.18905   -1092.4563    78.720186    26.436325   -1197.6128     284.0792    334.94773     33778.96   0.77946829    3.5419888 
      369000   -837.66864    273.42263   -1111.0913    73.339888    29.204751   -1213.6359    306.78136    154.28015    33779.678   0.77945172    3.5357441 
      370000   -840.67798    263.65262   -1104.3306    67.957679    20.350476   -1192.6388    295.81936     237.9694    33936.661   0.77584615    3.5596929 
      371000   -846.49602    267.03235   -1113.5284    75.009667     25.72109   -1214.2591    299.61144   -159.90145    34238.603   0.76900415    3.5566777 
      372000   -853.68551    236.35886   -1090.0444    77.338615     26.27444   -1193.6574    265.19565   -159.72986    34511.257   0.76292869    3.5830126 
      373000   -855.53145    237.00856     -1092.54    62.267353    37.065007   -1191.8724    265.92462   -164.22936    34679.884   0.75921904     3.592307 
      374000    -848.3163     241.6224   -1089.9387     68.14791    33.662048   -1191.7487    271.10136   -227.16676    34688.353   0.75903367    3.5256795 
      375000   -831.90534    258.00478   -1089.9101    66.335049    36.186811    -1192.432    289.48246   -124.84325    34556.476   0.76193035    3.5446038 
      376000   -818.55911    267.02148   -1085.5806      73.5383    28.793761   -1187.9127    299.59924    56.706284    34380.805   0.76582348    3.5359625 
      377000   -812.76747    274.63574   -1087.4032    73.869752     34.35582   -1195.6288    308.14247    103.89631    34222.797   0.76935934    3.5320615 
      378000   -811.71085    268.21453   -1079.9254    89.663439    36.869104   -1206.4579    300.93785   -51.037921      34119.7   0.77168403    3.5106255 
      379000    -816.2604    272.57611   -1088.8365    73.564719    29.175294   -1191.5765    305.83156    195.97722    34066.243   0.77289497    3.5332231 
      380000   -824.47885    260.78389   -1085.2627    84.626007    29.799032   -1199.6878    292.60063    52.558975    34135.022   0.77133765    3.5536251 
      381000   -836.99942    270.09302   -1107.0924    76.767046    26.065398   -1209.9249    303.04552   -100.85143    34251.502   0.76871455    3.5735747 
      382000   -847.84571    240.06954   -1087.9152    77.559761    22.027495   -1187.5025    269.35905    69.747559    34379.973   0.76584203    3.5590737 
      383000   -852.48722     242.0575   -1094.5447    76.278397    23.209916    -1194.033    271.58955   -176.63383    34479.943   0.76362156    3.5987159 
      384000   -850.48549    246.53969   -1097.0252     70.86817    30.590542   -1198.4839    276.61858   -126.30216    34462.972    0.7639976    3.5425733 
      385000   -845.54362     242.4412   -1087.9848    72.382605     30.08996   -1190.4574    272.02007    31.679445    34354.707   0.76640525        3.524 
      386000   -839.55296    264.66011   -1104.2131    69.248659    25.341235    -1198.803    296.94978   0.42673239    34218.307   0.76946028    3.5409204 
      387000   -836.13673    249.81531    -1085.952    87.744361    37.034701   -1210.7311    280.29384    1.7515941    34111.213   0.77187605    3.4614264 
      388000    -829.6763    252.13863   -1081.8149    81.021642    31.886161   -1194.7227    282.90062    177.94024    34064.609   0.77293204    3.5069841 
      389000   -822.33357    273.50362   -1095.8372    71.941489    34.497876   -1202.2766    306.87223    112.92965    34137.714   0.77127684     3.554309 
      390000   -819.10173    261.01393   -1080.1157     72.98478    31.119952   -1184.2204    292.85875    116.27877    34342.371   0.76668055    3.5882603 
      391000   -815.65153    267.67176   -1083.3233    66.947092    32.235887   -1182.5063    300.32886    1.0092868    34620.689   0.76051715    3.5378771 
      392000   -812.57858    268.38373   -1080.9623    59.084758    30.726235   -1170.7733    301.12769   -39.396534    34913.952   0.75412913    3.5808468 
      393000   -807.92381    245.81543   -1053.7392    79.839136    29.344628    -1162.923    275.80596   -140.82334    35120.094   0.74970265    3.5751038 
      394000   -800.57279    250.62275   -1051.1955    73.441899    29.237636   -1153.8751     281.1998   -45.600108    35171.461   0.74860774    3.5548817 
      395000   -789.71298    276.23839   -1065.9514    71.855393    20.847007   -1158.6538    309.94066   -68.858936    35135.569   0.74937246    3.5842488 
      396000   -783.15807    281.65621   -1064.8143    72.201184    31.833677   -1168.8491    316.01947   -220.92763    35049.054   0.75122223    3.5730088 
      397000   -784.58884    285.86581   -1070.4547    66.225996    30.358492   -1167.0391    320.74266   -67.624465     34880.14   0.75486017    3.5645056 
      398000   -795.29831    285.46533   -1080.7636    70.193091    27.751264    -1178.708    320.29332   -13.721162    34673.802    0.7593522    3.5328183 
      399000   -811.67953    271.92881   -1083.6083    78.304553    30.658202   -1192.5711    305.10528   -51.929137    34465.979   0.76393094    3.5243972 
      400000   -825.12331    276.55066    -1101.674    70.548254    32.372432   -1204.5947    310.29102    1.1513018    34265.985   0.76838965    3.5009902 
Loop time of 7.05593 on 1 procs for 20000 steps with 300 atoms

Performance: 4898.011 ns/day, 0.005 hours/ns, 2834.497 timesteps/s
99.9% CPU use with 1 MPI tasks x 1 OpenMP threads

MPI task timing breakdown:
Section |  min time  |  avg time  |  max time  |%varavg| %total
---------------------------------------------------------------
Pair    | 4.7797     | 4.7797     | 4.7797     |   0.0 | 67.74
Bond    | 0.19623    | 0.19623    | 0.19623    |   0.0 |  2.78
Neigh   | 1.5284     | 1.5284     | 1.5284     |   0.0 | 21.66
Comm    | 0.19668    | 0.19668    | 0.19668    |   0.0 |  2.79
Output  | 0.033469   | 0.033469   | 0.033469   |   0.0 |  0.47
Modify  | 0.26996    | 0.26996    | 0.26996    |   0.0 |  3.83
Other   |            | 0.0515     |            |       |  0.73

Nlocal:        300.000 ave         300 max         300 min
Histogram: 1 0 0 0 0 0 0 0 0 0
Nghost:        1732.00 ave        1732 max        1732 min
Histogram: 1 0 0 0 0 0 0 0 0 0
Neighs:        16475.0 ave       16475 max       16475 min
Histogram: 1 0 0 0 0 0 0 0 0 0

Total # of neighbors = 16475
Ave neighs/atom = 54.916667
Ave special neighs/atom = 2.0000000
Neighbor list builds = 2330
Dangerous builds = 0


###################################################
### Average box size and change box ###############

variable          vol equal vol
fix               AVE all ave/time 1 1 1 v_vol mode scalar ave running

run               20000
Per MPI rank memory allocation (min/avg/max) = 7.935 | 7.935 | 7.935 Mbytes
Time TotEng KinEng PotEng E_bond E_angle E_vdwl Temp Press Volume Density v_RG 
      400000   -825.12331    276.55066    -1101.674    70.548254    32.372432   -1204.5947    310.29102    1.1513018    34265.985   0.76838965    3.5009902 
      401000   -831.43681    257.18052   -1088.6173    84.532606    29.981549   -1203.1315    288.55764    -7.255926    34129.584   0.77146057    3.5390258 
      402000   -835.59206    264.74138   -1100.3334    66.639735    26.414342   -1193.3875    297.04096    212.93968    34058.423   0.77307245     3.552708 
      403000   -843.10624    270.84203   -1113.9483    79.644648     28.88592   -1222.4788    303.88592    -157.2947    34055.141   0.77314694    3.5078156 
      404000   -849.00773    253.96431    -1102.972    79.087629    22.240158   -1204.2998    284.94904    61.468254    34053.923   0.77317459    3.5135242 
      405000   -852.30022    262.44056   -1114.7408    72.777282    23.210961    -1210.729    294.45943   -28.721262    34084.268   0.77248625    3.5410857 
      406000   -852.59272    236.71437   -1089.3071    82.366011    23.718873    -1195.392    265.59453    58.410445     34121.04   0.77165374    3.5705896 
      407000   -848.47464    271.58154   -1120.0562     68.41967    24.384293   -1212.8601    304.71565   -48.684435    34147.898    0.7710468    3.5495271 
      408000   -834.91389    252.37598   -1087.2899    70.618886    24.056543   -1181.9653    283.16693     240.2577    34220.321     0.769415    3.5611274 
      409000   -818.00673    257.84923    -1075.856    67.062054    29.759987    -1172.678    289.30794    200.91006    34362.032   0.76624187    3.5495846 
      410000   -809.02489    253.96048   -1062.9854    78.454157    32.177512    -1173.617    284.94475    105.32128    34535.254   0.76239857    3.5265053 
      411000   -804.15504    261.64215   -1065.7972    63.349882    32.589216   -1161.7363    293.56361    226.77651    34726.491   0.75820007    3.5209567 
      412000    -802.3069    251.10807    -1053.415    87.524987    30.389177   -1171.3291    281.74433   -93.046834     34897.24   0.75449027    3.5469956 
      413000   -799.25898    273.53716   -1072.7961    71.502067    41.344725   -1185.6429    306.90987   -283.60089    35011.216   0.75203409     3.526644 
      414000   -793.92248    278.32991   -1072.2524    71.801535    28.713293   -1172.7672    312.28735   -103.81098     35033.23   0.75156153    3.5329189 
      415000   -786.46282    269.65111   -1056.1139    83.662358    29.797513   -1169.5738     302.5497   -96.215862    35033.406   0.75155775    3.5214282 
      416000   -777.68651    269.47235   -1047.1589     77.79522    29.734747   -1154.6888    302.34913    39.809192    35032.186   0.75158394    3.5609577 
      417000   -769.77329    290.16909   -1059.9424    71.540305    21.062886   -1152.5456    325.57095    96.013788    35033.053   0.75156533    3.5910372 
      418000   -769.30197    268.67671   -1037.9787    81.491196    41.291373   -1160.7613    301.45642   -47.840473    35092.946   0.75028264    3.5252393 
      419000   -778.65772     266.8526   -1045.5103    82.870517    36.283772   -1164.6646    299.40975   -30.793898    35130.376   0.74948325    3.5290976 
      420000   -795.65286    268.39425   -1064.0471    71.788629    31.675534   -1167.5113    301.13949   -85.178218    35149.465   0.74907622    3.5165461 
      421000    -807.3257    251.19549   -1058.5212    72.262402    24.920317   -1155.7039    281.84241    30.296241    35134.511   0.74939503    3.5465914 
      422000   -814.15272    261.64974   -1075.8025    72.769658    24.581545   -1173.1537    293.57213    -55.41282    35063.763   0.75090708    3.5667026 
      423000   -817.35894    255.12049   -1072.4794    72.261693    26.548405   -1171.2895    286.24628   -86.273703    34923.709   0.75391844    3.5243901 
      424000   -818.49817    261.77144   -1080.2696    79.788372    26.341228   -1186.3992    293.70867   -145.90614    34698.313   0.75881579    3.5528876 
      425000   -820.00945    274.72999   -1094.7394    73.853947    28.136116   -1196.7295    308.24823    -79.63923    34444.144   0.76441522    3.5654026 
      426000   -823.86331    265.88692   -1089.7502    71.297784    29.159643   -1190.2077    298.32625     129.3072    34245.912   0.76884003     3.519367 
      427000     -829.353    263.01627   -1092.3693    75.128498    28.837208    -1196.335    295.10538    171.99494    34172.687    0.7704875    3.5279662 
      428000   -842.34026    260.58247   -1102.9227     67.30283    28.340316   -1198.5659    292.37465   -14.636887    34246.558   0.76882552    3.5720803 
      429000   -856.39051    251.98786   -1108.3784    78.802578    26.043215   -1213.2242    282.73146   -193.54318    34318.287   0.76721859      3.53909 
      430000   -863.39376    239.64853   -1103.0423      76.1077    29.728114   -1208.8781    268.88667    -112.1372    34294.557   0.76774947    3.5398002 
      431000   -862.79025    246.37805   -1109.1683    75.229463    25.919134   -1210.3169    276.43722    3.6663022    34173.601   0.77046689    3.5270103 
      432000   -852.10701    243.62444   -1095.7314    71.678435    31.289684   -1198.6996    273.34766    154.83273    34059.248   0.77305371    3.5237024 
      433000   -837.76835    264.89952   -1102.6679    87.005245     33.40802   -1223.0811     297.2184   -73.218409    33976.777   0.77493012    3.4977428 
      434000   -828.54726    250.14421   -1078.6915    83.090208       27.135   -1188.9167    280.66287    323.69435    33943.521   0.77568935    3.5097576 
      435000    -825.4526    269.50146   -1094.9541    83.551416    28.057238   -1206.5627    302.38179    98.475392    34005.058   0.77428563    3.5181875 
      436000   -825.07634    266.86514   -1091.9415    71.145781    34.260573   -1197.3478    299.42383    45.147563    34164.444    0.7706734    3.5282815 
      437000   -826.31654    253.14338   -1079.4599     77.11488     39.36008   -1195.9349    284.02795   -88.550996    34353.586   0.76643026    3.4966401 
      438000   -825.33778    258.76323    -1084.101    70.803502    30.763163   -1185.6677    290.33345   -33.387578    34538.007    0.7623378    3.5286946 
      439000   -825.10305    272.61973   -1097.7228    65.795767    27.065675   -1190.5842     305.8805   -144.07397    34658.776   0.75968141    3.5182855 
      440000   -826.49822    263.52243   -1090.0207     73.72452    22.538984   -1186.2842    295.67329   -129.46357    34715.272    0.7584451    3.5583333 
      441000   -828.47275    252.80966   -1081.2824    78.710216      25.3887   -1185.3813    283.65352   -185.70976     34734.96    0.7580152    3.5747545 
      442000   -827.57073    256.78382   -1084.3546    79.082705    22.840714    -1186.278    288.11254   -216.68611     34649.59   0.75988281    3.5358805 
      443000    -821.5384    255.70534   -1077.2437    82.215842    24.017857   -1183.4774    286.90248    120.17461    34472.502    0.7637864    3.5575592 
      444000   -816.06673    278.05046   -1094.1172     67.30502    21.686638   -1183.1089    311.97381    162.59923    34357.997   0.76633186    3.5723193 
      445000   -816.97809    270.57387    -1087.552     82.44317    23.639859    -1193.635    303.58504    69.337909    34310.717   0.76738788    3.5120581 
      446000   -824.83669    276.44842   -1101.2851    74.057761    28.615508   -1203.9584    310.17631   -27.107055    34339.714   0.76673987    3.5296416 
      447000   -837.12201    243.18753   -1080.3095    85.791369    28.932015   -1195.0329    272.85745   -41.991399    34388.692   0.76564786    3.4567182 
      448000   -845.42573    234.62517   -1080.0509    72.508068    34.001776   -1186.5607    263.25044    157.90529    34394.016   0.76552932    3.5537899 
      449000   -848.21477    258.65357   -1106.8683    69.538193    33.936132   -1210.3427    290.21041   -211.55795    34366.606   0.76613989    3.5421503 
      450000   -844.55919    262.01954   -1106.5787     61.38571     30.41528   -1198.3797    293.98704   -12.024835    34284.184   0.76798176    3.5634216 
      451000   -832.99772    245.52796   -1078.5257    76.988814    33.456413   -1188.9709    275.48342    312.01103    34186.159   0.77018387    3.4732726 
      452000   -811.84671    268.78479   -1080.6315    85.522531    31.268692   -1197.4227    301.57768    80.319711    34176.069   0.77041126     3.491181 
      453000   -800.47929    262.84682   -1063.3261    84.093642    27.639267    -1175.059    294.91525    328.97291    34289.778   0.76785648    3.5412551 
      454000   -799.75513    268.35213   -1068.1073    79.912479    32.605729   -1180.6255    301.09224    54.370613    34557.388   0.76191026    3.5495116 
      455000   -802.75888    269.61539   -1072.3743    72.987558    33.146109   -1178.5079    302.50962   -79.454174    34906.694   0.75428593    3.5335839 
      456000   -807.01732    241.12526   -1048.1426    83.284443    28.121107   -1159.5481    270.54357   -128.35995     35207.95   0.74783191    3.5723396 
      457000   -809.35587    241.31004   -1050.6659    62.469702    36.444785   -1149.5804     270.7509   -97.445826    35388.771    0.7440108     3.528561 
      458000   -806.90611     254.4842   -1061.3903     60.16447    38.689498   -1160.2443    285.53236   -237.79766    35391.208   0.74395958    3.5722338 
      459000   -798.87799    258.45311   -1057.3311    74.071745    33.153663   -1164.5565     289.9855   -106.22509    35209.809   0.74779242    3.5180034 
      460000   -780.95013    275.10523   -1056.0554    80.716275    32.743962   -1169.5156    308.66925    1.0302592     34985.68   0.75258299    3.5434112 
      461000   -768.99602    289.82703    -1058.823    75.679615     34.46619   -1168.9689    325.18716    124.69477    34801.641   0.75656283    3.5038646 
      462000   -770.65389    288.14593   -1058.7998     68.75269     32.18379   -1159.7363    323.30097    180.50172    34711.063   0.75853707    3.5719078 
[...]
     2983000    -820.5142     251.5164   -1072.0306    79.854945    31.534058   -1183.4196    282.20248    135.16099     34499.68   0.76318469     3.511497 
     2984000   -815.45341     264.1615   -1079.6149    77.595882    32.540484   -1189.7513    296.39034   -57.401415     34499.68   0.76318469    3.5353275 
     2985000   -811.31148    279.92916   -1091.2406     76.91654    36.012951   -1204.1701    314.08171   -182.79761     34499.68   0.76318469    3.5575717 
     2986000    -807.8927    266.46084   -1074.3535    65.229977    36.243806   -1175.8273    298.97019    124.94789     34499.68   0.76318469    3.5477513 
     2987000   -804.64011    259.69153   -1064.3316    73.262561    35.089814    -1172.684      291.375    147.66126     34499.68   0.76318469      3.55077 
     2988000   -803.44678    272.48793   -1075.9347    81.749861    31.521668   -1189.2062    305.73262   -22.411328     34499.68   0.76318469    3.4961865 
     2989000   -805.91595    272.02543   -1077.9414    72.569345    29.331605   -1179.8423     305.2137    195.73059     34499.68   0.76318469    3.5664705 
     2990000   -815.02114    266.82157   -1081.8427    90.877261    20.785996    -1193.506    299.37494   -86.345428     34499.68   0.76318469    3.5683021 
     2991000   -829.11334    272.02443   -1101.1378    75.588297    21.239464   -1197.9655    305.21257   -74.864601     34499.68   0.76318469    3.5443647 
     2992000   -839.67509    250.49325   -1090.1683    70.833205    21.203345   -1182.2049    281.05449    112.49584     34499.68   0.76318469    3.5803631 
     2993000   -843.26371    247.47128    -1090.735    79.753771    22.043014   -1192.5318    277.66384   -79.457393     34499.68   0.76318469    3.5904916 
     2994000   -842.04926    247.22953   -1089.2788    72.177061    31.379111    -1192.835    277.39259   -24.693089     34499.68   0.76318469    3.5094179 
     2995000    -833.6401    244.21866   -1077.8588    68.292386    26.527314   -1172.6785    274.01438    212.11618     34499.68   0.76318469    3.5344035 
     2996000   -820.03085    262.13367   -1082.1645    68.369955    30.935837   -1181.4703     294.1151    278.16553     34499.68   0.76318469    3.5459778 
     2997000   -808.08742    245.48857    -1053.576    91.935257    33.122079   -1178.6333    275.43923    207.12488     34499.68   0.76318469     3.490328 
     2998000    -801.2742     250.7648    -1052.039    93.448371    31.120837   -1176.6082    281.35918    115.63105     34499.68   0.76318469    3.5154208 
     2999000   -798.69502    271.89694    -1070.592    80.280128    22.917228   -1173.7893    305.06953    143.37571     34499.68   0.76318469    3.5636459 
     3000000   -801.41441     273.8759   -1075.2903    67.077911    25.347105   -1167.7153    307.28992    214.03571     34499.68   0.76318469    3.5919075 
Loop time of 120.362 on 1 procs for 100000 steps with 300 atoms

Performance: 1435.669 ns/day, 0.017 hours/ns, 830.827 timesteps/s
99.1% CPU use with 1 MPI tasks x 1 OpenMP threads

MPI task timing breakdown:
Section |  min time  |  avg time  |  max time  |%varavg| %total
---------------------------------------------------------------
Pair    | 40.875     | 40.875     | 40.875     |   0.0 | 33.96
Bond    | 2.5986     | 2.5986     | 2.5986     |   0.0 |  2.16
Neigh   | 7.395      | 7.395      | 7.395      |   0.0 |  6.14
Comm    | 1.0285     | 1.0285     | 1.0285     |   0.0 |  0.85
Output  | 0.18874    | 0.18874    | 0.18874    |   0.0 |  0.16
Modify  | 67.966     | 67.966     | 67.966     |   0.0 | 56.47
Other   |            | 0.3101     |            |       |  0.26

Nlocal:        300.000 ave         300 max         300 min
Histogram: 1 0 0 0 0 0 0 0 0 0
Nghost:        1720.00 ave        1720 max        1720 min
Histogram: 1 0 0 0 0 0 0 0 0 0
Neighs:        16384.0 ave       16384 max       16384 min
Histogram: 1 0 0 0 0 0 0 0 0 0

Total # of neighbors = 16384
Ave neighs/atom = 54.613333
Ave special neighs/atom = 2.0000000
Neighbor list builds = 11535
Dangerous builds = 0

unfix             tK
variable          kappa delete
variable          kzz delete
variable          kyy delete
variable          kxx delete
unfix             HACF
unfix             tH
uncompute         H
uncompute         SV
uncompute         PE
uncompute         KE

unfix             tE
variable          etadc delete
variable          eta delete
variable          etayz delete
variable          etaxz delete
variable          etaxy delete
variable          etazz delete
variable          etayy delete
variable          etaxx delete
unfix             PACF
unfix             tP
variable          pyz delete
variable          pxz delete
variable          pxy delete
variable          nzz delete
variable          nyy delete
variable          nxx delete
variable          pzz delete
variable          pyy delete
variable          pxx delete

unfix             hRG
undump            dANGLE
uncompute         ANGLE
uncompute         ATYPE
undump            dBOND
uncompute         BOND
uncompute         BTYPE

unfix             ZMOM
unfix             NVT


###################################################
### End Analysis ##################################

undump            TRJ

thermo_style      custom time etotal ke pe ebond eangle evdwl temp press vol density

unfix             tRG
variable          RG delete
uncompute         RGMOLS
uncompute         MOLS


###################################################
### End ###########################################

write_data        end.data
System init for write_data ...
write_restart     end.restart
System init for write_restart ...


###################################################
### Post-treatment ################################

variable          i loop 3
label             looprdf

clear
OMP_NUM_THREADS environment is not set. Defaulting to 1 thread. (src/comm.cpp:94)
  using 1 OpenMP thread(s) per MPI task

# System (must be defined for rerun, it will be updated)
read_restart      end.restart
Reading restart file ...
  restart file = 29 Oct 2020, LAMMPS = 29 Oct 2020
  restoring atom style full from restart
  orthogonal box = (0.0000000 0.0000000 0.0000000) to (32.554050 32.554050 32.554050)
  1 by 1 by 1 MPI processor grid
  restoring pair style lj/gromacs from restart
  restoring bond style harmonic from restart
  restoring angle style cosine/squared from restart
  300 atoms
  200 bonds
  100 angles
Finding 1-2 1-3 1-4 neighbors ...
  special bond factors lj:    0.0      1.0      1.0     
  special bond factors coul:  0.0      0.0      0.0     
     2 = max # of 1-2 neighbors
     1 = max # of 1-3 neighbors
     1 = max # of 1-4 neighbors
     2 = max # of special neighbors
  special bonds CPU = 0.000 seconds
  read_restart CPU = 0.002 seconds
reset_timestep    0

thermo_style      one
thermo            0

bond_style        zero nocoeff
bond_coeff        *
angle_style       zero nocoeff
angle_coeff       *

pair_style        zero 15.0 nocoeff
pair_coeff        * *
neighbor          0.0 bin
neigh_modify      every 1 delay 0 check no
neigh_modify      exclude none
#neigh_modify      page 1000000 one 20000

if                "$i == 1" then                     "variable FILENAME index rdf.011.time"                     "special_bonds lj 0.0 1.0 1.0"
variable FILENAME index rdf.011.time
special_bonds lj 0.0 1.0 1.0
if                "$i == 2" then                     "variable FILENAME index rdf.intra.011.time"                     "special_bonds lj 0.0 1.0 1.0"                     "neigh_modify exclude molecule/inter all"
if                "$i == 3" then                     "variable FILENAME index rdf.inter.time"                     "special_bonds lj 0.0 0.0 0.0"                     "neigh_modify exclude molecule/intra all"
compute           RDF all rdf 150 1 1
fix               tRDF all ave/time 1 1 500 c_RDF[*]                   mode vector ave running file ${FILENAME} overwrite title3 "# Row Distance RDF CN"
fix               tRDF all ave/time 1 1 500 c_RDF[*]                   mode vector ave running file rdf.011.time overwrite title3 "# Row Distance RDF CN"
rerun             dump.lammpstrj first 50000 every 500 dump x y z wrapped no box yes replace yes
Neighbor list info ...
  update every 1 steps, delay 0 steps, check no
  max neighbors/atom: 2000, page size: 100000
  master list distance cutoff = 15
  ghost atom cutoff = 15
  binsize = 7.5, bins = 5 5 5
  2 neighbor lists, perpetual/occasional/extra = 1 1 0
  (1) pair zero, perpetual
      attributes: half, newton on
      pair build: half/bin/newton
      stencil: half/bin/3d/newton
      bin: standard
  (2) compute rdf, occasional, copy from (1)
      attributes: half, newton on
      pair build: copy
      stencil: none
      bin: none
Per MPI rank memory allocation (min/avg/max) = 6.304 | 6.304 | 6.304 Mbytes
Step Temp E_pair E_mol TotEng Press 
   50000    307.28992            0            0     273.8759    362.88715 
  150000    307.28992            0            0     273.8759    362.88715 
Loop time of 0.304121 on 1 procs for 201 steps with 300 atoms

Performance: 1142.073 ns/day, 0.021 hours/ns, 660.922 timesteps/s
100.0% CPU use with 1 MPI tasks x 1 OpenMP threads

MPI task timing breakdown:
Section |  min time  |  avg time  |  max time  |%varavg| %total
---------------------------------------------------------------
Pair    | 0          | 0          | 0          |   0.0 |  0.00
Bond    | 0          | 0          | 0          |   0.0 |  0.00
Neigh   | 0          | 0          | 0          |   0.0 |  0.00
Comm    | 0          | 0          | 0          |   0.0 |  0.00
Output  | 0          | 0          | 0          |   0.0 |  0.00
Modify  | 0          | 0          | 0          |   0.0 |  0.00
Other   |            | 0.3041     |            |       |100.00

Nlocal:        300.000 ave         300 max         300 min
Histogram: 1 0 0 0 0 0 0 0 0 0
Nghost:        1810.00 ave        1810 max        1810 min
Histogram: 1 0 0 0 0 0 0 0 0 0
Neighs:        18192.0 ave       18192 max       18192 min
Histogram: 1 0 0 0 0 0 0 0 0 0

Total # of neighbors = 18192
Ave neighs/atom = 60.640000
Ave special neighs/atom = 2.0000000
Neighbor list builds = 0
Dangerous builds not checked
unfix             tRDF
uncompute         RDF
variable          FILENAME delete

next              i
jump              SELF looprdf

clear
OMP_NUM_THREADS environment is not set. Defaulting to 1 thread. (src/comm.cpp:94)
  using 1 OpenMP thread(s) per MPI task

# System (must be defined for rerun, it will be updated)
read_restart      end.restart
Reading restart file ...
  restart file = 29 Oct 2020, LAMMPS = 29 Oct 2020
  restoring atom style full from restart
  orthogonal box = (0.0000000 0.0000000 0.0000000) to (32.554050 32.554050 32.554050)
  1 by 1 by 1 MPI processor grid
  restoring pair style lj/gromacs from restart
  restoring bond style harmonic from restart
  restoring angle style cosine/squared from restart
  300 atoms
  200 bonds
  100 angles
Finding 1-2 1-3 1-4 neighbors ...
  special bond factors lj:    0.0      1.0      1.0     
  special bond factors coul:  0.0      0.0      0.0     
     2 = max # of 1-2 neighbors
     1 = max # of 1-3 neighbors
     1 = max # of 1-4 neighbors
     2 = max # of special neighbors
  special bonds CPU = 0.000 seconds
  read_restart CPU = 0.001 seconds
reset_timestep    0

thermo_style      one
thermo            0

bond_style        zero nocoeff
bond_coeff        *
angle_style       zero nocoeff
angle_coeff       *

pair_style        zero 15.0 nocoeff
pair_coeff        * *
neighbor          0.0 bin
neigh_modify      every 1 delay 0 check no
neigh_modify      exclude none
#neigh_modify      page 1000000 one 20000

if                "$i == 1" then                     "variable FILENAME index rdf.011.time"                     "special_bonds lj 0.0 1.0 1.0"
if                "$i == 2" then                     "variable FILENAME index rdf.intra.011.time"                     "special_bonds lj 0.0 1.0 1.0"                     "neigh_modify exclude molecule/inter all"
variable FILENAME index rdf.intra.011.time
special_bonds lj 0.0 1.0 1.0
neigh_modify exclude molecule/inter all
if                "$i == 3" then                     "variable FILENAME index rdf.inter.time"                     "special_bonds lj 0.0 0.0 0.0"                     "neigh_modify exclude molecule/intra all"
compute           RDF all rdf 150 1 1
fix               tRDF all ave/time 1 1 500 c_RDF[*]                   mode vector ave running file ${FILENAME} overwrite title3 "# Row Distance RDF CN"
fix               tRDF all ave/time 1 1 500 c_RDF[*]                   mode vector ave running file rdf.intra.011.time overwrite title3 "# Row Distance RDF CN"
rerun             dump.lammpstrj first 50000 every 500 dump x y z wrapped no box yes replace yes
Neighbor list info ...
  update every 1 steps, delay 0 steps, check no
  max neighbors/atom: 2000, page size: 100000
  master list distance cutoff = 15
  ghost atom cutoff = 15
  binsize = 7.5, bins = 5 5 5
  2 neighbor lists, perpetual/occasional/extra = 1 1 0
  (1) pair zero, perpetual
      attributes: half, newton on
      pair build: half/bin/newton
      stencil: half/bin/3d/newton
      bin: standard
  (2) compute rdf, occasional, copy from (1)
      attributes: half, newton on
      pair build: copy
      stencil: none
      bin: none
Per MPI rank memory allocation (min/avg/max) = 6.304 | 6.304 | 6.304 Mbytes
Step Temp E_pair E_mol TotEng Press 
   50000    307.28992            0            0     273.8759    362.88715 
  150000    307.28992            0            0     273.8759    362.88715 
Loop time of 0.239335 on 1 procs for 201 steps with 300 atoms

Performance: 1451.222 ns/day, 0.017 hours/ns, 839.828 timesteps/s
97.2% CPU use with 1 MPI tasks x 1 OpenMP threads

MPI task timing breakdown:
Section |  min time  |  avg time  |  max time  |%varavg| %total
---------------------------------------------------------------
Pair    | 0          | 0          | 0          |   0.0 |  0.00
Bond    | 0          | 0          | 0          |   0.0 |  0.00
Neigh   | 0          | 0          | 0          |   0.0 |  0.00
Comm    | 0          | 0          | 0          |   0.0 |  0.00
Output  | 0          | 0          | 0          |   0.0 |  0.00
Modify  | 0          | 0          | 0          |   0.0 |  0.00
Other   |            | 0.2393     |            |       |100.00

Nlocal:        300.000 ave         300 max         300 min
Histogram: 1 0 0 0 0 0 0 0 0 0
Nghost:        1810.00 ave        1810 max        1810 min
Histogram: 1 0 0 0 0 0 0 0 0 0
Neighs:        100.000 ave         100 max         100 min
Histogram: 1 0 0 0 0 0 0 0 0 0

Total # of neighbors = 100
Ave neighs/atom = 0.33333333
Ave special neighs/atom = 2.0000000
Neighbor list builds = 0
Dangerous builds not checked
unfix             tRDF
uncompute         RDF
variable          FILENAME delete

next              i
jump              SELF looprdf

clear
OMP_NUM_THREADS environment is not set. Defaulting to 1 thread. (src/comm.cpp:94)
  using 1 OpenMP thread(s) per MPI task

# System (must be defined for rerun, it will be updated)
read_restart      end.restart
Reading restart file ...
  restart file = 29 Oct 2020, LAMMPS = 29 Oct 2020
  restoring atom style full from restart
  orthogonal box = (0.0000000 0.0000000 0.0000000) to (32.554050 32.554050 32.554050)
  1 by 1 by 1 MPI processor grid
  restoring pair style lj/gromacs from restart
  restoring bond style harmonic from restart
  restoring angle style cosine/squared from restart
  300 atoms
  200 bonds
  100 angles
Finding 1-2 1-3 1-4 neighbors ...
  special bond factors lj:    0.0      1.0      1.0     
  special bond factors coul:  0.0      0.0      0.0     
     2 = max # of 1-2 neighbors
     1 = max # of 1-3 neighbors
     1 = max # of 1-4 neighbors
     2 = max # of special neighbors
  special bonds CPU = 0.000 seconds
  read_restart CPU = 0.001 seconds
reset_timestep    0

thermo_style      one
thermo            0

bond_style        zero nocoeff
bond_coeff        *
angle_style       zero nocoeff
angle_coeff       *

pair_style        zero 15.0 nocoeff
pair_coeff        * *
neighbor          0.0 bin
neigh_modify      every 1 delay 0 check no
neigh_modify      exclude none
#neigh_modify      page 1000000 one 20000

if                "$i == 1" then                     "variable FILENAME index rdf.011.time"                     "special_bonds lj 0.0 1.0 1.0"
if                "$i == 2" then                     "variable FILENAME index rdf.intra.011.time"                     "special_bonds lj 0.0 1.0 1.0"                     "neigh_modify exclude molecule/inter all"
if                "$i == 3" then                     "variable FILENAME index rdf.inter.time"                     "special_bonds lj 0.0 0.0 0.0"                     "neigh_modify exclude molecule/intra all"
variable FILENAME index rdf.inter.time
special_bonds lj 0.0 0.0 0.0
Finding 1-2 1-3 1-4 neighbors ...
  special bond factors lj:    0.0      0.0      0.0     
  special bond factors coul:  0.0      0.0      0.0     
     2 = max # of 1-2 neighbors
     1 = max # of 1-3 neighbors
     1 = max # of 1-4 neighbors
     2 = max # of special neighbors
  special bonds CPU = 0.000 seconds
neigh_modify exclude molecule/intra all
compute           RDF all rdf 150 1 1
fix               tRDF all ave/time 1 1 500 c_RDF[*]                   mode vector ave running file ${FILENAME} overwrite title3 "# Row Distance RDF CN"
fix               tRDF all ave/time 1 1 500 c_RDF[*]                   mode vector ave running file rdf.inter.time overwrite title3 "# Row Distance RDF CN"
rerun             dump.lammpstrj first 50000 every 500 dump x y z wrapped no box yes replace yes
Neighbor list info ...
  update every 1 steps, delay 0 steps, check no
  max neighbors/atom: 2000, page size: 100000
  master list distance cutoff = 15
  ghost atom cutoff = 15
  binsize = 7.5, bins = 5 5 5
  2 neighbor lists, perpetual/occasional/extra = 1 1 0
  (1) pair zero, perpetual
      attributes: half, newton on
      pair build: half/bin/newton
      stencil: half/bin/3d/newton
      bin: standard
  (2) compute rdf, occasional, copy from (1)
      attributes: half, newton on
      pair build: copy
      stencil: none
      bin: none
Per MPI rank memory allocation (min/avg/max) = 6.304 | 6.304 | 6.304 Mbytes
Step Temp E_pair E_mol TotEng Press 
   50000    307.28992            0            0     273.8759    362.88715 
  150000    307.28992            0            0     273.8759    362.88715 
Loop time of 0.357986 on 1 procs for 201 steps with 300 atoms

Performance: 970.227 ns/day, 0.025 hours/ns, 561.474 timesteps/s
96.6% CPU use with 1 MPI tasks x 1 OpenMP threads

MPI task timing breakdown:
Section |  min time  |  avg time  |  max time  |%varavg| %total
---------------------------------------------------------------
Pair    | 0          | 0          | 0          |   0.0 |  0.00
Bond    | 0          | 0          | 0          |   0.0 |  0.00
Neigh   | 0          | 0          | 0          |   0.0 |  0.00
Comm    | 0          | 0          | 0          |   0.0 |  0.00
Output  | 0          | 0          | 0          |   0.0 |  0.00
Modify  | 0          | 0          | 0          |   0.0 |  0.00
Other   |            | 0.358      |            |       |100.00

Nlocal:        300.000 ave         300 max         300 min
Histogram: 1 0 0 0 0 0 0 0 0 0
Nghost:        1810.00 ave        1810 max        1810 min
Histogram: 1 0 0 0 0 0 0 0 0 0
Neighs:        18092.0 ave       18092 max       18092 min
Histogram: 1 0 0 0 0 0 0 0 0 0

Total # of neighbors = 18092
Ave neighs/atom = 60.306667
Ave special neighs/atom = 2.0000000
Neighbor list builds = 0
Dangerous builds not checked
unfix             tRDF
uncompute         RDF
variable          FILENAME delete

next              i
jump              SELF looprdf
variable          i delete
Total wall time: 0:02:18
