LAMMPS (3 Mar 2020)
OMP_NUM_THREADS environment is not set. Defaulting to 1 thread. (src/comm.cpp:94)
  using 1 OpenMP thread(s) per MPI task
###################################################
### System ########################################

include           system.in
units             real

atom_style        full
bond_style        harmonic
angle_style       cosine/squared
pair_style        lj/gromacs 9.0 12.0
special_bonds     lj 0.0 1.0 1.0
neighbor          2.5 bin
neigh_modify      delay 1 every 1 check yes

read_data         system.data
  orthogonal box = (0 0 0) to (38 38 38)
  1 by 1 by 1 MPI processor grid
  reading atoms ...
  300 atoms
  scanning bonds ...
  1 = max bonds/atom
  scanning angles ...
  1 = max angles/atom
  reading bonds ...
  200 bonds
  reading angles ...
  100 angles
  2 = max # of 1-2 neighbors
  1 = max # of 1-3 neighbors
  1 = max # of 1-4 neighbors
  2 = max # of special neighbors
  special bonds CPU = 0.000126778 secs
  read_data CPU = 0.00263555 secs

variable          lx equal lx
variable          lx0 equal ${lx}
variable          lx0 equal 38
variable          lx delete
variable          ly equal ly
variable          ly0 equal ${ly}
variable          ly0 equal 38
variable          ly delete
variable          lz equal lz
variable          lz0 equal ${lz}
variable          lz0 equal 38
variable          lz delete
variable          vol equal vol
variable          vol0 equal ${vol}
variable          vol0 equal 54872
variable          vol delete


###################################################
### Minimize energy ###############################

thermo            0
min_style         cg
minimize          1.0e-4 1.0e-6 100 1000
WARNING: Using 'neigh_modify every 1 delay 0 check yes' setting during minimization (src/min.cpp:190)
Neighbor list info ...
  update every 1 steps, delay 0 steps, check yes
  max neighbors/atom: 2000, page size: 100000
  master list distance cutoff = 14.5
  ghost atom cutoff = 14.5
  binsize = 7.25, bins = 6 6 6
  1 neighbor lists, perpetual/occasional/extra = 1 0 0
  (1) pair lj/gromacs, perpetual
      attributes: half, newton on
      pair build: half/bin/newton
      stencil: half/bin/3d/newton
      bin: standard
Per MPI rank memory allocation (min/avg/max) = 7.65 | 7.65 | 7.65 Mbytes
Step Temp E_pair E_mol TotEng Press 
       0            0 3.0467845e+11 3.849245e-09 3.0467845e+11 1.5229154e+12 
     100            0   -965.29774    19.244485   -946.05325   -772.11411 
Loop time of 0.0295203 on 1 procs for 100 steps with 300 atoms

99.4% CPU use with 1 MPI tasks x 1 OpenMP threads

Minimization stats:
  Stopping criterion = max iterations
  Energy initial, next-to-last, final = 
          304678449103     -943.483513298     -946.053250729
  Force two-norm initial, final = 9.00982e+12 5.35116
  Force max component initial, final = 5.9429e+12 2.1502
  Final line search alpha, max atom move = 0.078945 0.169747
  Iterations, force evaluations = 100 108

MPI task timing breakdown:
Section |  min time  |  avg time  |  max time  |%varavg| %total
---------------------------------------------------------------
Pair    | 0.023289   | 0.023289   | 0.023289   |   0.0 | 78.89
Bond    | 0.00096928 | 0.00096928 | 0.00096928 |   0.0 |  3.28
Neigh   | 0.0032582  | 0.0032582  | 0.0032582  |   0.0 | 11.04
Comm    | 0.00077578 | 0.00077578 | 0.00077578 |   0.0 |  2.63
Output  | 1.9661e-05 | 1.9661e-05 | 1.9661e-05 |   0.0 |  0.07
Modify  | 0          | 0          | 0          |   0.0 |  0.00
Other   |            | 0.001208   |            |       |  4.09

Nlocal:    300 ave 300 max 300 min
Histogram: 1 0 0 0 0 0 0 0 0 0
Nghost:    1277 ave 1277 max 1277 min
Histogram: 1 0 0 0 0 0 0 0 0 0
Neighs:    10646 ave 10646 max 10646 min
Histogram: 1 0 0 0 0 0 0 0 0 0

Total # of neighbors = 10646
Ave neighs/atom = 35.4867
Ave special neighs/atom = 2
Neighbor list builds = 7
Dangerous builds = 0


###################################################
### Analysis ######################################

# Structural analysis
compute           MOLS all chunk/atom molecule
compute           RGMOLS all gyration/chunk MOLS
variable          RG equal ave(c_RGMOLS)
fix               tRG all ave/time 1 1 500 c_RGMOLS[*] mode vector ave one file gyration.time

# Thermodynamics
thermo_style      custom time etotal ke pe ebond eangle evdwl temp press vol density v_RG
thermo            50

# Trajectory
dump              TRJ all custom 500 dump.lammpstrj id mol type xu yu zu
dump_modify       TRJ sort id


###################################################
### Equilibration NPT Dynamics ####################

velocity          all create 293.0 2934

timestep          20.0

fix               NPT all npt temp 293.0 293.0 $(100.0*dt) iso 1.0 1.0 $(1000.0*dt)
fix               NPT all npt temp 293.0 293.0 2000 iso 1.0 1.0 $(1000.0*dt)
fix               NPT all npt temp 293.0 293.0 2000 iso 1.0 1.0 20000
fix               ZMOM all momentum 5 linear 1 1 1 angular rescale

run               20000
Per MPI rank memory allocation (min/avg/max) = 6.65 | 6.65 | 6.65 Mbytes
Time TotEng KinEng PotEng E_bond E_angle E_vdwl Temp Press Volume Density v_RG 
           0   -684.91342    261.13983   -946.05325    6.0378314    13.206654   -965.29774          293   -554.56607        54872   0.47983722    3.7402477 
        1000      -674.56    152.38674   -826.94674    43.952087     20.78797    -891.6868    170.97858   -485.65054    54483.014   0.48326306    3.6910972 
        2000   -661.53534    197.06036    -858.5957    53.968051    27.168518   -939.73227    221.10257   -260.14785    53285.958   0.49411944    3.6407904 
        3000   -643.06131    215.50336   -858.56467    54.871056    29.808226   -943.24395    241.79569   -203.60509     51728.52   0.50899635    3.6239342 
        4000   -624.33008    247.37261   -871.70269    63.132767    24.928184   -959.76365    277.55313   -150.78655    50069.147   0.52586532    3.6047816 
        5000   -608.60441    266.77891   -875.38332    53.539371    35.936873   -964.85956    299.32707   -197.39661    48528.259    0.5425628    3.5780051 
        6000   -595.27444    273.36136   -868.63579    63.270162     34.88105   -966.78701    306.71261    -73.06115     47201.77   0.55781018     3.604888 
        7000    -589.8525    280.02471   -869.87721    76.414874     28.33628   -974.62837    314.18892   -205.73523    46125.737   0.57082292    3.6227047 
        8000    -594.9769    289.37643   -884.35333    61.514689    32.371963   -978.23998    324.68159   -65.982438    45160.513   0.58302322    3.5979975 
        9000   -610.21453    275.10075   -885.31527    70.005328    27.637163   -982.95776    308.66421   -126.19028    44222.453   0.59539049    3.5999217 
       10000   -631.66098    263.08263    -894.7436    67.326407    31.510614   -993.58063    295.17983   -270.60434    43289.667    0.6082197    3.5955155 
       11000   -653.22354    268.58696   -921.81049    58.561912     30.66836   -1011.0408    301.35571   -183.78362    42259.453   0.62304706    3.5891196 
       12000   -672.61541    263.24661   -935.86202    67.966689    33.330552   -1037.1593    295.36382   -355.25688    41200.788   0.63905642    3.5816968 
       13000    -691.5172    263.44227   -954.95948    67.657749     18.55215   -1041.1694    295.58336   -163.25918    40096.566   0.65665544    3.6457805 
       14000    -711.5268    280.26361    -991.7904    65.889248    25.404683   -1083.0843    314.45696   -296.93901    39039.199   0.67444079    3.6113612 
       15000   -728.13711    253.99184   -982.12896    74.331773    21.521995   -1077.9827    284.97993   -227.01499    38089.627   0.69125455    3.6878928 
       16000    -742.7568    274.71122    -1017.468    67.370506     26.71751    -1111.556    308.22716   -182.03482    37221.023   0.70738593     3.573854 
       17000   -753.75581    283.04786   -1036.8037    59.125534    35.569211   -1131.4984    317.58091   -78.416923    36495.495   0.72144872    3.5403344 
       18000   -764.06308    287.95982   -1052.0229    65.882625    26.691698   -1144.5972    323.09215   -265.18847    35912.631   0.73315788     3.611845 
       19000   -778.06027    271.49183   -1049.5521    75.371299     30.89398   -1155.8174    304.61499   -68.907016    35405.532   0.74365858    3.5707067 
       20000   -793.94846    262.17629   -1056.1247    75.407519     31.31925   -1162.8515    294.16292     43.16942    34966.823   0.75298885    3.5177902 
       21000   -805.89819    261.89781    -1067.796     75.95706    32.090031   -1175.8431    293.85046    127.98809    34602.806   0.76091021    3.5183513 
       22000   -816.05933    253.91212   -1069.9714    87.735192     28.70069   -1186.4073    284.89048    210.48071    34356.021   0.76637595    3.5215792 
       23000   -825.06852    265.33751    -1090.406     71.54448    22.569365   -1184.5199    297.70982    179.96803    34248.935   0.76877217    3.5412924 
       24000    -833.5816    266.50927   -1100.0909    75.936159    20.753757   -1196.7808    299.02453    95.600572    34268.849   0.76832543    3.5584183 
       25000    -842.7886    257.54427   -1100.3329    69.085664    25.021843   -1194.4404    288.96577    8.1201999     34319.68   0.76718747    3.5823934 
       26000   -846.40177    242.48331   -1088.8851    77.290454    30.845137   -1197.0207    272.06731   -48.564011    34343.786   0.76664896    3.5679426 
       27000    -844.3807    258.83292   -1103.2136    57.225297    25.318182   -1185.7571    290.41164    85.815641    34320.646   0.76716586    3.5556258 
       28000   -835.78558    256.70255   -1092.4881    73.231065    29.236538   -1194.9557    288.02135    4.1701441    34312.898   0.76733909    3.5342609 
       29000   -821.36652    266.41058   -1087.7771    70.545458    35.656252   -1193.9788    298.91381    55.175873    34316.834   0.76725109    3.4898386 
       30000   -805.02744    278.09767   -1083.1251    82.387597    26.634954   -1192.1477    312.02677    47.683698    34392.342    0.7655666    3.5097257 
       31000   -800.87244    276.58728   -1077.4597    78.585472    22.807759    -1178.853    310.33211    49.611044    34521.861   0.76269433    3.5672602 
       32000   -802.76801     278.1868   -1080.9548    75.636006     33.24479   -1189.8356    312.12678   -110.19813    34671.222   0.75940871    3.4978275 
       33000   -805.43354    266.49767   -1071.9312    66.774072    25.975153   -1164.6804    299.01152    71.029648    34807.199   0.75644202    3.5429828 
       34000   -811.13779    251.78576   -1062.9236    70.009675    22.963055   -1155.8963     282.5047    80.655703    34890.195   0.75464262     3.562163 
       35000    -819.8363    254.40144   -1074.2377     64.13617    32.045349   -1170.4193     285.4395   -69.730811    34878.583   0.75489385    3.5586245 
       36000    -825.1412    244.90859   -1070.0498    63.722596    37.685528   -1171.4579    274.78848   -21.841269    34763.303   0.75739719    3.5619269 
       37000   -826.25656    256.83865   -1083.0952     74.94935     28.91284   -1186.9574    288.17407   -46.437219    34579.449   0.76142416    3.5768975 
       38000   -823.69909    251.65529   -1075.3544    79.321364    24.798678   -1179.4744    282.35831    114.22961    34426.937    0.7647973    3.5783883 
       39000   -815.03709    266.78338   -1081.8205    85.178393    24.870491   -1191.8694    299.33209   0.35986642    34357.937   0.76633322    3.5499396 
       40000   -801.80162    273.60753   -1075.4092    83.561461    24.388958   -1183.3596    306.98882    135.14286    34338.848    0.7667592    3.5362151 
       41000   -790.85336     293.8979   -1084.7513    71.709106    25.349569   -1181.8099     329.7547    186.82365     34422.47   0.76489654    3.5637946 
       42000   -789.84734    277.68711   -1067.5344    75.970455    36.581936   -1180.0868    311.56612    85.397007    34588.243   0.76123057    3.5444653 
       43000   -799.01415    272.52543   -1071.5396    72.803458    29.638362   -1173.9814     305.7747   -20.336906    34772.673   0.75719309    3.5694572 
       44000   -814.32744    249.80247   -1064.1299    70.321461    28.248389   -1162.6998    280.27943    54.428569    34938.628   0.75359651    3.5232251 
       45000   -824.99385    242.91294   -1067.9068    69.056573    31.700639    -1168.664    272.54936   -103.45086    35039.604   0.75142482    3.5313558 
       46000   -827.89656    260.84905   -1088.7456    70.276368    26.747467   -1185.7694    292.67375   -199.46247    35017.647   0.75189599    3.5555556 
       47000   -828.94102    264.77501    -1093.716    76.310191    22.190351   -1192.2166    297.07869   -272.00889    34846.072   0.75559816    3.5565534 
       48000   -828.51491    252.56297   -1081.0779    72.903154    23.312126   -1177.2932    283.37673    61.119914    34576.877   0.76148079    3.5524206 
       49000   -828.39133    241.60555   -1069.9969    90.187966    29.731737   -1189.9166    271.08246    71.082841    34310.159   0.76740035    3.4965286 
       50000    -828.2185    272.67559   -1100.8941    75.805784    28.911828   -1205.6117    305.94318    50.355219    34120.584   0.77166404    3.5440239 
       51000   -830.38163    279.97002   -1110.3516    72.885119    30.183287     -1213.42    314.12756    22.756918    34037.739   0.77354222     3.541341 
       52000   -838.36701     256.5858   -1094.9528    78.567436    25.230186   -1198.7504    287.89036    143.11219     34030.59   0.77370472    3.5621118 
       53000   -857.35838    267.86871   -1125.2271    71.883692    21.434715   -1218.5455    300.54984   -45.776209    34059.964   0.77303745    3.5635295 
       54000   -871.00006    239.96314   -1110.9632    68.062957    24.694341   -1203.7205    269.23967     7.102245    34098.186   0.77217092    3.5611785 
       55000   -872.64025    252.86037   -1125.5006    70.907129    27.615527   -1224.0233    283.71041   -188.04382     34091.41   0.77232441    3.5677935 
       56000   -865.10179    265.24491   -1130.3467    73.241829    26.496461    -1230.085    297.60592   -236.35139    34026.921   0.77378814    3.5928562 
       57000   -855.26135      252.504   -1107.7654    84.555473    27.683256   -1220.0041    283.31057   -27.640244    33939.304   0.77578574    3.5535423 
       58000   -846.80588    255.06263   -1101.8685    63.442275    30.769569   -1196.0804    286.18136    264.00309    33897.146   0.77675058    3.5187482 
       59000   -840.85641     275.2796    -1116.136    70.026182    30.576061   -1216.7383    308.86489    51.329344    33925.835   0.77609373    3.5041106 
       60000   -836.65209    252.36824   -1089.0203    89.083602    35.212654   -1213.3166    283.15825   -22.669305    33995.883   0.77449461    3.5135991 
       61000   -833.22012    254.93773   -1088.1578    81.677249     33.45893    -1203.294    286.04122    48.716997    34100.305   0.77212295    3.5134263 
       62000   -829.65697    271.80684   -1101.4638    78.406642    27.292665   -1207.1631    304.96844    -70.55725    34234.208   0.76910288    3.5220896 
       63000   -826.61504    264.12037   -1090.7354    77.227336     22.50012   -1190.4629    296.34418    68.546954    34360.447   0.76627723    3.5520425 
       64000    -826.8539    265.63299   -1092.4869    63.494163    32.173564   -1188.1546    298.04135    56.459734    34452.532   0.76422912    3.5085192 
       65000    -826.1502     268.9908    -1095.141    71.394225    33.532837   -1200.0681    301.80883   -102.73708    34518.144   0.76277648    3.5379753 
       66000   -820.55164     275.4149   -1095.9665    70.399888    28.202197   -1194.5686     309.0167   -134.85747    34547.336   0.76213194    3.5916385 
       67000    -804.6566     266.7592   -1071.4158    81.150071    28.095074   -1180.6609    299.30496    12.378789     34554.78   0.76196776    3.5500544 
       68000   -791.25394    289.67404    -1080.928    80.711361    34.876077   -1196.5154    325.01551   -42.585273    34581.167   0.76138634    3.5226886 
       69000   -786.71834    266.31373   -1053.0321    83.562612    32.346351    -1168.941    298.80515    84.374328    34659.861   0.75965763    3.5365992 
       70000   -788.56513    283.99837   -1072.5635     71.19541    31.514841   -1175.2738    318.64739    34.647732    34773.286   0.75717974    3.5533265 
       71000   -800.13958    266.93789   -1067.0775    77.191642    29.320396   -1173.5895    299.50545   -26.761448    34877.525   0.75491675    3.5569041 
       72000   -813.49235    260.16458   -1073.6569    71.317428    23.621522   -1168.5959    291.90577    -91.04477    34963.778   0.75305444    3.5724836 
       73000   -822.95916    246.83395   -1069.7931    82.218873    25.609004    -1177.621    276.94875   -226.51879     34984.83   0.75260128    3.5600507 
       74000   -826.02421    261.09127   -1087.1155    67.440141    34.929667   -1189.4853    292.94552   -303.11708    34867.678   0.75512996    3.5557054 
       75000   -825.14648     250.7898   -1075.9363    85.395036    21.500822   -1182.8321    281.38723   -75.485608    34603.254   0.76090034    3.5666487 
       76000    -821.4549    255.00071   -1076.4556    70.068906    28.969013   -1175.4935    286.11189    207.35185    34309.733   0.76740989    3.5608361 
       77000   -821.79903    277.81862   -1099.6176     83.42799    21.413641   -1204.4593    311.71367    56.716027    34052.787   0.77320039    3.5407902 
       78000   -829.04606    265.36795    -1094.414    76.473596    26.987275   -1197.8749    297.74397    248.37066    33914.009   0.77636436    3.5350496 
       79000   -842.07229    260.77413   -1102.8464    73.280388      29.8406   -1205.9674    292.58968    188.53028    33897.326   0.77674645    3.5408689 
       80000   -860.16548    253.30797   -1113.4734    77.455984    25.541459   -1216.4709    284.21262   -52.695376    33940.023   0.77576931    3.5807593 
       81000   -873.50006    244.74007   -1118.2401    65.027782    25.783572   -1209.0515    274.59941    100.38575      33941.8   0.77572868    3.5435852 
       82000    -872.7436    241.33283   -1114.0764    62.438358    23.561789   -1200.0766    270.77646    143.64904    33969.119   0.77510482    3.5889741 
       83000   -867.52383    256.27935   -1123.8032     61.19388    28.334742   -1213.3318    287.54652    51.795735    34015.596   0.77404576    3.5264354 
       84000   -857.66023    246.27378    -1103.934    77.631847    28.372364   -1209.9382    276.32023   -16.144937    34069.007   0.77283226    3.5497433 
       85000   -844.78219    271.16568   -1115.9479    69.702736     28.37795   -1214.0285    304.24905   -39.059702    34116.334   0.77176019    3.5597116 
       86000   -834.84368    269.17528    -1104.019    77.692545    32.490584   -1214.2021    302.01581   -161.42092    34201.523   0.76983787    3.5268387 
       87000   -826.12212    259.26755   -1085.3897    72.993542    36.080478   -1194.4637     290.8993    29.281449    34312.931   0.76733836    3.5159579 
       88000    -817.1233     270.6259   -1087.7492     77.02137    32.496931   -1197.2675    303.64341    -85.57018    34449.943   0.76428654    3.5173267 
       89000    -810.7908    250.63895   -1061.4297    91.533854    25.639665   -1178.6033    281.21797    -1.874186     34574.53   0.76153248     3.513623 
       90000   -806.12905    257.72284   -1063.8519    92.981073    33.580507   -1190.4135    289.16612   -128.09979    34721.206   0.75831548    3.4855058 
       91000   -800.50532    265.05036   -1065.5557     70.54933    33.146309   -1169.2513    297.38764   -3.7210102    34854.965   0.75540539    3.5290116 
       92000   -791.43071    278.95243   -1070.3831    68.737955    32.577917    -1171.699    312.98582    -75.18463    34962.929   0.75307272    3.5602729 
       93000   -778.62534    272.83933   -1051.4647    68.721938    36.376425    -1156.563    306.12689    99.599409    35042.667   0.75135913    3.5200013 
       94000     -763.054    266.10689   -1029.1609    77.821017    34.190532   -1141.1724    298.57307    101.83393    35173.757   0.74855887    3.5194634 
       95000    -752.4742     272.7337   -1025.2079    85.901915    21.495898   -1132.6057    306.00837    159.90617    35343.206   0.74496999    3.5541911 
       96000   -752.46461    298.94066   -1051.4053    71.374686    31.861027    -1154.641     335.4127   -187.97428    35607.174   0.73944728    3.5685304 
       97000   -764.49868     263.3007   -1027.7994    76.875804     26.89878    -1131.574    295.42451   -46.474216    35833.128   0.73478454    3.5207803 
       98000   -782.45481    259.35267   -1041.8075    70.529192    29.257072   -1141.5937    290.99481   -278.78555    35931.487   0.73277312    3.5462543 
       99000   -791.88542    257.69894   -1049.5844    75.587114    22.458935   -1147.6304    289.13931   -274.62917    35807.928   0.73530163    3.5429859 
      100000   -794.77137    255.58853   -1050.3599    83.504917    22.773731   -1156.6385    286.77142   -299.88643    35494.219   0.74180046    3.5500671 
      101000   -796.80372    266.34798   -1063.1517    79.721982    27.633625   -1170.5073    298.84357   -157.11986    35063.721   0.75090798    3.5669869 
      102000   -801.62598    280.52368   -1082.1497    73.352323    28.640426   -1184.1424    314.74877   -40.893865    34621.367   0.76050226    3.5599295 
      103000   -810.29204    264.26986   -1074.5619    83.947845    33.597773   -1192.1075    296.51191    43.324506    34265.012   0.76841147    3.5344551 
      104000     -822.176    259.51279   -1081.6888    88.118977    31.901888   -1201.7096    291.17446    111.36044    34029.311   0.77373379    3.4992443 
      105000   -833.70848    262.29104   -1095.9995    88.152514    34.528358   -1218.6804    294.29167    85.581926    33939.267   0.77578659    3.4664908 
      106000   -841.66996    257.95372   -1099.6237    79.800378    32.418369   -1211.8424    289.42517    37.710443    33977.062   0.77492363    3.4802086 
      107000   -844.56674    259.13151   -1103.6983    80.316902     25.43105   -1209.4462    290.74667   -42.260713    34130.993    0.7714287    3.5501454 
      108000   -844.21503     247.8849   -1092.0999     75.40136    26.028605   -1193.5299    278.12791   -30.430995    34349.734   0.76651622    3.5751765 
      109000   -839.80493    252.21193   -1092.0169    80.265632    22.344506    -1194.627    282.98286   -87.170264    34525.561   0.76261261    3.5482674 
      110000   -834.09317    255.46593   -1089.5591    63.521122     29.32234   -1182.4026    286.63387   -43.731428    34607.024   0.76081745    3.5594836 
      111000   -827.91641    261.14017   -1089.0566    72.281297    27.722501   -1189.0604    293.00039   -71.652364    34631.147   0.76028748    3.5067834 
      112000   -822.95671    256.85207   -1079.8088    63.966492    32.577123   -1176.3524    288.18912    33.903279    34591.266   0.76116405    3.5386087 
      113000   -820.60626    266.13741   -1086.7437    87.277647    33.051002   -1207.0723    298.60731    -225.3064    34525.124   0.76262227    3.5250953 
      114000   -821.38563    261.85616   -1083.2418    77.530537    30.311587   -1191.0839    293.80373    19.582652    34429.225   0.76474646    3.5155481 
      115000   -821.16772    274.81188   -1095.9796    68.979535    31.440251   -1196.3994     308.3401    10.107054    34349.954   0.76651129    3.5332552 
      116000   -823.45745    259.22436   -1082.6818    80.588781    23.693407    -1186.964    290.85084    154.85654    34306.791   0.76747569    3.5886805 
      117000   -828.66491    260.80803   -1089.4729    80.632597    30.094492      -1200.2    292.62773   -60.761926    34343.151   0.76666314    3.5535691 
      118000   -834.90128    258.47522   -1093.3765    66.689645    26.353178   -1186.4193     290.0103    100.91865    34366.612   0.76613976    3.5926963 
      119000   -841.69865    255.76898   -1097.4676    66.068591    24.647774    -1188.184    286.97388    31.198879    34421.902   0.76490917    3.5782182 
      120000   -849.26411     244.9079    -1094.172    77.084549    23.086833   -1194.3434    274.78771   -99.572166    34462.633   0.76400511    3.5634545 
      121000    -857.6241    237.48805   -1095.1122    78.762845    25.711876   -1199.5869    266.46261   -175.07264    34448.991   0.76430768    3.5522872 
      122000   -863.98161    238.92186   -1102.9035    71.043754    26.933739    -1200.881    268.07135    -23.26176    34358.993   0.76630966    3.5431567 
      123000   -862.61725    243.24562   -1105.8629     64.59352    23.946294   -1194.4027    272.92263    122.91747    34229.925   0.76919912    3.5547577 
      124000    -849.0357    258.38559   -1107.4213    68.661363    30.122771   -1206.2054    289.90973       67.137    34119.425   0.77169025    3.5366953 
      125000   -832.86371    253.43695   -1086.3007    82.114534    30.025771    -1198.441    284.35733    215.64151    34051.044   0.77323996      3.51578 
      126000   -823.29557    255.96253   -1079.2581    81.681741    31.241812   -1192.1817    287.19105     237.1371     34052.35   0.77321031    3.5162537 
      127000   -818.58141    262.45643   -1081.0378    73.441237    32.429314   -1186.9084    294.47724    132.84947    34144.415   0.77112547    3.5652458 
      128000    -818.6711    284.62856   -1103.2997    85.226328    23.855335   -1212.3813    319.35446   -157.36392    34305.513   0.76750428    3.5601964 
      129000    -824.1027    255.10812   -1079.2108    72.336909    33.467031   -1185.0148     286.2324    49.032792    34480.336   0.76361287    3.5272923 
      130000   -830.89553    232.33323   -1063.2288     68.79912    33.197598   -1165.2255    260.67888    88.489012    34652.229   0.75982495    3.5371959 
      131000   -838.26454    252.38725   -1090.6518    69.397744    29.331649   -1189.3812    283.17957   -172.71138    34746.977   0.75775306    3.5593327 
      132000   -845.86479     222.3338   -1068.1986    82.935024    29.673308   -1180.8069    249.45948   -87.984566    34723.698   0.75826106    3.5175115 
      133000   -848.41894    255.29774   -1103.7167    59.015536    25.644938   -1188.3772    286.44515   -65.359026     34598.91   0.76099588    3.5473578 
      134000   -844.19245    249.04227   -1093.2347    65.033968    30.384867   -1188.6536    279.42649    94.318882    34411.711   0.76513569    3.5423005 
      135000   -831.20603    254.28301    -1085.489    69.426038    29.640294   -1184.5554    285.30662    171.58356    34225.758   0.76929276    3.5442017 
      136000   -817.88846    272.79507   -1090.6835    85.409588    27.860686   -1203.9538    306.07724    113.53052    34068.634   0.77284074    3.4913682 
      137000   -811.47198    275.83837   -1087.3104    67.815483      34.7385   -1189.8643    309.49183    338.03586    33995.911   0.77449397    3.5195427 
      138000   -811.92745    266.23622   -1078.1637    83.865903    31.567755   -1193.5973    298.71818    228.21676    34074.312   0.77271195    3.4880785 
      139000   -817.74687    276.04768   -1093.7946    72.287844    29.896264   -1195.9787    309.72668    65.007063    34260.769   0.76850663    3.5538069 
      140000   -829.74082     277.3513   -1107.0921    64.173183    29.036895   -1200.3022    311.18934   -230.05557    34513.837   0.76287166    3.5686104 
      141000   -843.91045    245.98234   -1089.8928    63.486292    31.839078   -1185.2182    275.99323   -173.40032    34687.713   0.75904768    3.5176847 
      142000   -849.02888    248.04216    -1097.071    65.602918    23.863944   -1186.5379    278.30436    -174.4487    34738.312   0.75794206    3.5630871 
      143000   -846.19402    235.91576   -1082.1098    68.062582    23.558303   -1173.7307     264.6985    12.323305    34632.488   0.76025806    3.5403424 
      144000   -839.37666    259.94196   -1099.3186    72.104994     28.32977   -1199.7534    291.65599   -96.058285    34424.932   0.76484184    3.5546575 
      145000   -833.73217    259.73833   -1093.4705    77.867249     25.47496   -1196.8127    291.42751    82.872252    34152.361   0.77094606    3.5069769 
      146000   -832.01767     267.4133    -1099.431    74.503171    31.485258   -1205.4194    300.03886     159.3189    33954.194   0.77544552    3.4992047 
      147000   -831.98564    267.26657   -1099.2522     71.46956    31.713256    -1202.435    299.87423    203.28552     33852.92   0.77776533     3.536231 
      148000   -834.42477    263.10321    -1097.528    77.237384    28.619897   -1203.3853    295.20292    225.14622    33852.904   0.77776572    3.5111484 
      149000   -836.75671    265.00406   -1101.7608    77.801259     26.52101    -1206.083    297.33569    137.80769    34001.107    0.7743756    3.5678616 
      150000   -839.10079     268.3962    -1107.497    70.983481    23.697248   -1202.1777    301.14168     45.00048    34228.298   0.76923567    3.5694055 
      151000   -839.03743    253.30772   -1092.3452    79.339967    30.905096   -1202.5902    284.21234    -188.8955    34455.329   0.76416708    3.5576166 
      152000   -833.15656    263.72586   -1096.8824    69.556995    26.825454   -1193.2649    295.90154   -143.72493    34626.841   0.76038204    3.5720862 
      153000   -818.66632     256.1925   -1074.8588    79.677062     33.38993   -1187.9258    287.44908   -201.29833    34724.866   0.75823556    3.5249991 
      154000   -802.72811    262.13128   -1064.8594    78.361172    28.008027   -1171.2286    294.11241    22.255882    34758.905   0.75749302    3.5307616 
      155000   -795.57138    269.08981   -1064.6612    71.018827    27.479687   -1163.1597    301.91991    47.331214    34805.787   0.75647271    3.5738305 
      156000   -796.09055    263.40728   -1059.4978    71.717827    24.879758   -1156.0954    295.54409    109.46274    34855.597   0.75539168    3.5707474 
      157000   -798.72225    240.89394   -1039.6162    83.278283    34.332611   -1157.2271    270.28403     8.174374    34919.763   0.75400363    3.5227845 
      158000   -800.55536    266.00154   -1066.5569    78.566867    26.193601   -1171.3174    298.45487   -67.193867    34947.667    0.7534016    3.5404628 
      159000   -803.50375    279.47462   -1082.9784    60.740192    29.872212   -1173.5908    313.57172   -113.21369      34966.7    0.7529915    3.5332664 
      160000   -814.88274     272.0377   -1086.9204    69.617394    31.625755   -1188.1636    305.22746   -305.90527    34940.821   0.75354921    3.5704656 
      161000   -834.39536    245.10061    -1079.496    80.537587    30.097991   -1190.1315    275.00393   -294.79004    34790.709   0.75680056    3.5381393 
      162000   -847.20066    251.61267   -1098.8133    61.879216    33.080918   -1193.7735    282.31049   -8.4113313    34501.413   0.76314637    3.5482409 
      163000   -851.59351    250.96546    -1102.559    65.340419     30.68059     -1198.58    281.58432    51.465602    34159.965   0.77077444    3.5520925 
      164000   -851.99817     259.0253   -1111.0235    73.000983    29.050324   -1213.0748     290.6275    112.96096     33814.73   0.77864376    3.5600374 
      165000   -850.64935    257.35223   -1108.0016    77.449939    34.870735   -1220.3222     288.7503    257.31606    33571.055   0.78429551    3.5212655 
      166000   -849.16887    261.33078   -1110.4996    76.481182    24.983757   -1211.9646    293.21425    369.30733    33505.072   0.78584007    3.4965151 
      167000   -846.91228    267.98412   -1114.8964    75.723421     33.29291   -1223.9127    300.67932    126.26404    33649.221   0.78247363    3.5120302 
      168000   -839.53008    273.38937   -1112.9195    66.701393    34.148612   -1213.7695    306.74404    4.4447116    33939.572   0.77577961    3.5086449 
      169000   -826.81819    273.46262   -1100.2808    67.457327     33.56681   -1201.3049    306.82623   -59.636707    34279.696   0.76808232    3.5385302 
      170000   -813.53595    257.69162   -1071.2276    75.286493    47.045369   -1193.5594     289.1311   -183.08222    34609.481   0.76076345     3.532028 
      171000   -802.48467    265.86492   -1068.3496    67.281849    38.566408   -1174.1978    298.30157   -54.802688    34870.075   0.75507804    3.5744817 
      172000   -798.15238     256.4771   -1054.6295    80.900383    30.105476   -1165.6353    287.76841   -119.39337    35044.496   0.75131992     3.536315 
      173000   -796.99718    281.49509   -1078.4923    71.948343    24.695277   -1175.1359     315.8387   -184.53878     35126.23    0.7495717    3.5240128 
      174000   -796.56827    249.19095   -1045.7592    68.467237    29.716793   -1143.9432    279.59331    129.32541    35109.903   0.74992027    3.5777762 
      175000    -795.6854    266.08917   -1061.7746    70.101905    30.789068   -1162.6655    298.55318   -70.446298    35050.118    0.7511994    3.5792753 
      176000   -800.96248    273.73924   -1074.7017    81.027565    26.979061   -1182.7083     307.1366   -159.25105    34937.074   0.75363003     3.555227 
      177000    -817.9685    261.88252    -1079.851    67.060394    29.496285   -1176.4077    293.83331     -43.7613    34750.669   0.75767255    3.5507534 
      178000    -833.6173    248.43106   -1082.0484    80.892721    27.332782   -1190.2739    278.74071    -146.6191    34517.477    0.7627912    3.5390424 
      179000   -842.50451    250.75959   -1093.2641    83.548211    23.464314   -1200.2766    281.35333    51.093885    34212.882   0.76958229    3.5385417 
      180000   -846.52313     279.1819    -1125.705     66.77292    28.785993   -1221.2639    313.24328    -81.08905    33944.043   0.77567742    3.5506459 
      181000   -849.93019    248.80573   -1098.7359     93.52213    23.451771   -1215.7098    279.16109    101.20549    33753.819   0.78004886    3.5267297 
      182000   -852.87914    265.71517   -1118.5943     72.00225    27.005917   -1217.6025    298.13355    178.93761    33697.224   0.78135896    3.5261497 
      183000   -854.64425    242.28183   -1096.9261    78.376886    28.851236   -1204.1542    271.84124    284.99885    33745.987   0.78022989    3.5058291 
      184000   -852.20141    251.83288   -1104.0343    76.557649    23.957339   -1204.5493    282.55757    177.68572    33857.879   0.77765144    3.5553077 
      185000   -839.29727    252.08069    -1091.378    72.959965    35.699011   -1200.0369    282.83561    105.57699    34064.906   0.77292532    3.5135167 
      186000   -822.35178    270.45289   -1092.8047    71.019094    32.372042   -1196.1958    303.44929    48.543521    34303.429    0.7675509    3.5338729 
      187000   -813.47194    267.23027   -1080.7022    63.278777    37.241439   -1181.2224    299.83351   -22.857501     34574.35   0.76153645     3.551919 
      188000   -810.82574    255.60978   -1066.4355    67.330346    27.109137    -1160.875    286.79527    100.32673    34821.173   0.75613845    3.5671432 
      189000   -809.63089    251.46983   -1061.1007    74.420396    33.062481   -1168.5836    282.15022   -147.46061    35029.437    0.7516429    3.5146771 
      190000   -809.16487    261.81201   -1070.9769     59.84124    32.814555   -1163.6327    293.75419   -118.75265    35080.985   0.75053845    3.5490653 
      191000   -807.07407    262.61669   -1069.6908    76.181663     29.13664   -1175.0091    294.65704   -124.16231    35009.272   0.75207585    3.5328349 
      192000   -802.45614    253.87191    -1056.328    79.829969    23.531691   -1159.6897    284.84536    143.96135    34879.252   0.75487938    3.5230619 
      193000   -791.95679      276.672   -1068.6288    73.615944    28.703495   -1170.9482    310.42717   -23.257084    34778.788   0.75705996    3.5500413 
      194000   -781.15302    281.37147   -1062.5245    80.355825    29.394109   -1172.2744    315.69999    80.658277     34730.24   0.75811824    3.5023182 
      195000   -774.20794    289.70553   -1063.9135    77.821749    31.962181   -1173.6974    325.05084    45.705703    34774.848   0.75714574    3.5358974 
      196000   -776.15147    290.10027   -1066.2517    75.725079    29.241752   -1171.2186    325.49374    -65.45149    34903.655   0.75435161    3.5437294 
      197000   -790.87595    277.40178   -1068.2777     72.87629    31.394624   -1172.5486    311.24598   -136.19123    35035.979   0.75150256    3.5620258 
      198000   -808.28512    251.88052   -1060.1656    69.617171    26.478231    -1156.261    282.61102   -48.875012    35155.642    0.7489446    3.5723803 
      199000   -813.82425    258.30298   -1072.1272    72.431754    37.547144   -1182.1061    289.81704   -309.03159     35206.46   0.74786354    3.5203742 
      200000   -813.68254    261.80536   -1075.4879    65.309004    34.182996   -1174.9799    293.74674   -240.61295    35080.984   0.75053848    3.5413045 
      201000   -814.27904    270.02902   -1084.3081    66.235004    26.101296   -1176.6444    302.97371   -44.217052    34737.212   0.75796607    3.5820934 
      202000   -817.39584    276.67739   -1094.0732    68.309922    31.373395   -1193.7566    310.43322    45.333216    34316.894   0.76724974    3.5404914 
      203000   -826.51254    270.41521   -1096.9277    78.130384    21.896886    -1196.955    303.40702    229.69465    33946.017   0.77563232    3.5103034 
      204000   -841.75916    266.74581    -1108.505    73.859315     28.35925   -1210.7235    299.28994    298.82623    33719.376   0.78084564    3.5089086 
      205000   -853.88836    269.95063    -1123.839    70.735185    22.787303   -1217.3615    302.88576    153.18579    33665.715   0.78209026    3.5619723 
      206000   -859.13978    246.28994   -1105.4297    82.907306     23.25245   -1211.5895    276.33836    155.66192    33730.967   0.78057733    3.5156571 
      207000   -859.54756     248.7003   -1108.2479    80.313454    27.697786   -1216.2591    279.04279    86.181452    33872.447   0.77731696    3.5391625 
      208000   -858.43276    263.75112   -1122.1839    75.781157    28.331639   -1226.2967    295.92988   -160.90831    34028.393   0.77375468    3.5369136 
      209000    -855.6343    233.48473    -1089.119    68.046169     26.21859   -1183.3838    261.97086    176.18693    34144.541   0.77112262    3.5544967 
      210000   -847.50555    251.95761   -1099.4632    70.498278    31.924152   -1201.8856    282.69751   -73.265843     34248.79   0.76877541    3.5488669 
      211000   -834.13495    255.30853   -1089.4435    75.205648    29.688339   -1194.3375    286.45727   -25.007032     34324.22   0.76708597    3.5610662 
      212000   -822.87979    256.50832   -1079.3881    79.620767    29.145466   -1188.1543    287.80343    93.386232    34343.874   0.76664701    3.5222225 
      213000   -818.83814    259.86151   -1078.6997    82.560155    26.272085   -1187.5319    291.56573    114.65326    34327.621   0.76700997    3.5308623 
      214000   -820.03905    263.55175   -1083.5908    79.526494    27.729843   -1190.8471    295.70619     35.00894    34326.286   0.76703981    3.5309835 
      215000   -823.14646    274.75611   -1097.9026    59.966518    31.616419   -1189.4855    308.27753    95.456625    34352.929   0.76644492    3.5289248 
      216000   -827.79219    266.89356   -1094.6857    79.204128    37.089696   -1210.9796    299.45571   -257.93286    34414.553    0.7650725     3.506586 
      217000   -830.92781    254.21727   -1085.1451    74.207043     33.68967   -1193.0418    285.23286   -70.301799    34446.744   0.76435753    3.5249607 
      218000   -831.12118    255.06082    -1086.182    82.295456    37.397051   -1205.8745    286.17933   -182.30027     34458.14   0.76410473    3.4726861 
      219000   -826.83783    263.04979   -1089.8876    76.468385    28.495173   -1194.8512    295.14299   -68.136769    34380.047   0.76584037    3.5576164 
      220000   -816.92908     273.2784   -1090.2075    68.676041    29.932442    -1188.816    306.61953    93.918972    34292.606   0.76779315      3.56316 
      221000     -803.007      285.846    -1088.853    70.566205    33.290315   -1192.7095    320.72044    98.562615    34278.671   0.76810528    3.5474908 
      222000   -794.01026     289.0305   -1083.0408    81.518878    33.664508   -1198.2241    324.29345   -39.279279     34357.86   0.76633493    3.5457573 
      223000   -796.49947    262.28924   -1058.7887    78.926234    34.377677   -1172.0926    294.28965    160.26956    34488.311   0.76343629    3.5094336 
      224000   -809.70708    256.13421   -1065.8413    82.437558     29.84065   -1178.1195    287.38368   -14.084151    34610.226   0.76074707    3.5272722 
      225000   -823.10738    269.26278   -1092.3702    63.595129    23.149725    -1179.115    302.11398    48.248183    34687.399   0.75905456    3.6025579 
      226000   -831.59715    270.10129   -1101.6984    69.265351    25.449397   -1196.4132     303.0548   -258.75775     34726.23   0.75820577    3.5684126 
      227000   -834.52395    250.86295   -1085.3869     77.77914    32.151843   -1195.3179     281.4693   -231.83403    34665.726   0.75952911    3.5426597 
      228000   -832.82633    261.51632   -1094.3426    77.830332    23.414556   -1195.5875    293.42242   -185.92487     34552.25   0.76202355    3.5879705 
      229000   -828.66738    252.87694   -1081.5443    75.732622    34.885042    -1192.162      283.729    -20.53848    34410.442   0.76516389     3.532252 
      230000    -823.1666    259.73551   -1082.9021    72.877483    33.662234   -1189.4418    291.42435     88.39587    34273.315   0.76822531    3.5581647 
      231000   -819.71749     287.4116   -1107.1291    65.833105    29.015371   -1201.9776    322.47704    33.603923    34186.136   0.77018438     3.551629 
      232000    -822.3618     254.6968   -1077.0586    90.170975    27.763575   -1194.9932     285.7709    124.02453    34218.748   0.76945035    3.4877205 
      233000   -829.32602    266.09025   -1095.4163    69.365336    27.934778   -1192.7164     298.5544    104.96285     34353.21   0.76643865    3.5303757 
      234000   -844.47974    254.59452   -1099.0743    60.274931    35.861191   -1195.2104    285.65614   -126.26077    34517.405   0.76279279    3.5257901 
      235000   -862.50041    244.95233   -1107.4527    63.916963    30.803926   -1202.1736    274.83756   -230.68432    34583.887   0.76132645    3.5116478 
      236000   -868.44276    238.10148   -1106.5442    70.859705    33.345108   -1210.7491    267.15088   -311.13874    34503.664   0.76309658    3.5361137 
      237000     -863.698    241.18434   -1104.8823    61.888262     28.80868   -1195.5793    270.60986    -64.65216    34271.327   0.76826988    3.5932237 
      238000   -854.34237    251.94923   -1106.2916    66.848223    28.089966   -1201.2298    282.68812    206.49684    33965.165   0.77519507    3.5078532 
      239000   -843.83485    243.51117    -1087.346    86.505908    26.184636   -1200.0366    273.22058    329.49015    33717.864   0.78088065    3.5235135 
      240000   -837.77457     273.0452   -1110.8198    69.458162    36.441952   -1216.7199    306.35788    221.68559    33615.963   0.78324777    3.5256572 
      241000     -838.617    252.90147   -1091.5185     75.83759    35.281074   -1202.6371    283.75653    302.00112    33655.364    0.7823308    3.5588358 
      242000   -841.55151    283.06086   -1124.6124    64.011162    23.434242   -1212.0578    317.59549    119.84865    33817.039   0.77859058    3.5751901 
      243000   -848.29664    284.24989   -1132.5465    68.205729    21.441841   -1222.1941    318.92959   -118.29226    34062.873   0.77297144     3.567432 
      244000   -855.84912    243.93917   -1099.7883    70.992811    26.436295   -1197.2174    273.70079   -6.2749662    34297.855   0.76767564    3.5551553 
      245000   -857.78712     236.4329     -1094.22    64.727716    22.072697   -1181.0204    265.27872    52.155097    34451.417   0.76425386    3.6100832 
      246000   -854.85597    246.38134   -1101.2373    63.572625    26.893593   -1191.7035    276.44091   -130.35657    34488.366   0.76343507    3.5541447 
      247000   -848.11106    235.04011   -1083.1512    72.613943    23.016186   -1178.7813      263.716    102.09518    34413.308   0.76510018    3.5534357 
      248000   -837.47393    261.29801   -1098.7719    73.645579    27.462577   -1199.8801    293.17749   -8.0478583    34300.527   0.76761584    3.5431087 
      249000   -828.97452    253.91717   -1082.8917    75.041415    22.372585   -1180.3057    284.89614    247.28879    34207.183   0.76971051    3.5598726 
      250000   -826.75378     268.1645   -1094.9183    72.718675    29.598304   -1197.2353    300.88172    51.399688    34199.506   0.76988328    3.5338819 
      251000   -827.65654    266.21514   -1093.8717    73.936288    29.761764   -1197.5697    298.69452   -46.983827    34249.871   0.76875115    3.5781508 
      252000   -829.18679     235.0201   -1064.2069    77.250584    32.882245   -1174.3397    263.69356    164.11183    34310.293   0.76739735    3.5179037 
      253000   -827.59258     251.7422   -1079.3348    78.874377    33.214331   -1191.4235    282.45582  -0.50486978     34405.37    0.7652767    3.5343518 
      254000   -823.15622    253.93341   -1077.0896    80.374544    24.399241   -1181.8634    284.91437    117.60461    34500.581   0.76316477    3.5549288 
      255000   -815.65204    256.64643   -1072.2985    86.008255    25.609317    -1183.916    287.95839   -19.910005    34611.103   0.76072779    3.5295762 
      256000   -808.23688    270.65015    -1078.887    65.551023    26.772984    -1171.211    303.67062    17.485916    34695.369   0.75888019    3.6136731 
      257000   -805.00263    260.38348   -1065.3861    76.387877    32.138675   -1173.9127    292.15137    11.304686    34725.258     0.758227    3.5488982 
      258000   -803.56357    273.20407   -1076.7676    75.773239    27.803685   -1180.3446    306.53614   -43.479353     34717.46    0.7583973    3.5660307 
      259000   -803.88511    276.66818   -1080.5533    70.152355    24.810226   -1175.5159    310.42288   -8.5452972    34690.149   0.75899437    3.5846261 
      260000   -808.09885     282.3797   -1090.4785    65.440777    28.474035   -1184.3934    316.83122   -63.486299    34696.131   0.75886352    3.5504663 
      261000   -819.44787      265.693   -1085.1409    76.057531    31.060938   -1192.2593    298.10868   -197.97845    34699.188   0.75879665    3.5335354 
      262000    -833.4358    255.05659   -1088.4924    68.403396    30.441229    -1187.337    286.17459   -77.324719    34624.578   0.76043175    3.5543917 
      263000   -842.11674    252.85882   -1094.9756    65.532351    35.008607   -1195.5165    283.70867   -69.300231    34484.737    0.7635154    3.5276064 
      264000   -846.71793    250.86462   -1097.5825    76.614046    31.989594   -1206.1862    281.47117   -78.545946    34289.686   0.76785853    3.5318192 
      265000   -845.40564    247.62392   -1093.0296    75.254709    27.404281   -1195.6885    277.83509     118.9893    34074.003   0.77271896     3.586514 
      266000   -838.21811    261.80061   -1100.0187    68.566043     31.69735   -1200.2821     293.7414    292.64923    33898.414   0.77672152    3.4955615 
      267000   -825.02107    262.50908   -1087.5301    86.514032    35.246389   -1209.2906     294.5363     91.97944    33837.565   0.77811828    3.5082697 
      268000   -810.60903    271.95884   -1082.5679    84.741066    32.344655   -1199.6536    305.13899    253.94048    33870.277   0.77736676    3.4725484 
      269000   -799.74519    275.31943   -1075.0646    78.346254    33.833474   -1187.2443    308.90957    293.44364    34086.585   0.77243373    3.4978409 
      270000   -795.71906    271.13057   -1066.8496    74.359118    26.972719   -1168.1815    304.20965    284.33831    34453.281    0.7642125    3.5240863 
      271000   -800.82153    275.73984   -1076.5614     63.07746    35.904664   -1175.5435    309.38128   -91.380116    34867.721   0.75512903    3.5347366 
      272000    -820.9086    240.72092   -1061.6295    78.208669    31.167271   -1171.0055     270.0899   -307.41654    35194.524   0.74811717    3.5573244 
      273000   -835.04832     253.9188   -1088.9671    59.128915    26.838238   -1174.9343    284.89798   -336.83179     35333.99   0.74516431    3.5595577 
      274000   -835.92874    239.58141   -1075.5101    61.306654    25.619516   -1162.4363    268.81136   -228.00783    35256.442   0.74680331    3.5578992 
      275000   -828.13899    232.89869   -1061.0377     77.64871    26.722469   -1165.4089    261.31332   -96.803043    34998.674   0.75230359     3.538869 
      276000   -814.54209    272.08186   -1086.6239    74.836099    26.218501   -1187.6785    305.27701   -89.042316    34648.606    0.7599044    3.5647195 
      277000   -806.48419    289.29974   -1095.7839    83.031328    22.122425   -1200.9377    324.59554    4.2257906    34319.874   0.76718311    3.5350366 
      278000   -809.86285    270.22264   -1080.0855    95.096381     27.84602   -1203.0279    303.19096    60.491541    34081.652   0.77254553    3.5413961 
      279000   -820.80984    272.21454   -1093.0244    72.549443    30.410987   -1195.9848    305.42588    270.89037    33953.533   0.77546062    3.5175574 
      280000   -833.30734    273.14049   -1106.4478    73.049975    30.629583   -1210.1274     306.4648    69.070679    33964.004   0.77522155    3.5287966 
      281000   -840.82185    250.98535   -1091.8072    79.171098    29.305388   -1200.2837    281.60663    72.650946    34047.242   0.77332632    3.5134877 
      282000   -841.00183    251.39946   -1092.4013    68.538063    28.649536   -1189.5889    282.07127    125.82313    34160.492   0.77076254    3.5728301 
      283000   -838.57091    260.09265   -1098.6636    76.060138    26.845021   -1201.5687    291.82507   -39.581163     34314.11   0.76731198    3.5483751 
      284000   -833.62164    254.79948   -1088.4211    76.467824    27.373817   -1192.2628     285.8861   -90.705959    34507.196   0.76301847    3.5425612 
      285000    -821.9245    250.49387   -1072.4184    67.180855    32.094133   -1171.6934     281.0552     81.25954    34672.028   0.75939106    3.5638796 
      286000   -810.40369    260.38843   -1070.7921    69.987277    27.937978   -1168.7174    292.15693    28.014965    34805.682   0.75647499    3.5492123 
      287000   -804.53234    283.49147   -1088.0238    57.225446    28.215175   -1173.4644    318.07864   -119.19783    34912.156   0.75416792    3.5910388 
      288000   -805.82057    263.71425   -1069.5348    65.415071    26.194233   -1161.1441    295.88851    22.093457    34922.549   0.75394348    3.5907607 
      289000   -810.11576    277.31861   -1087.4344    73.862015    26.752591    -1188.049    311.15266   -218.07307    34890.758   0.75463043    3.5666651 
      290000   -812.80679    262.18582   -1074.9926    60.002316    31.550464   -1166.5454    294.17361   -47.082493    34837.147   0.75579174    3.5816777 
      291000   -816.76109    262.78318   -1079.5443    73.924775    23.311464   -1176.7805    294.84385    7.3935868    34761.453   0.75743749    3.5575703 
      292000    -821.5552    275.04466   -1096.5999    66.346488       27.482   -1190.4283    308.60128   -74.386419     34683.67   0.75913616     3.567026 
      293000   -829.04337    255.96632   -1085.0097     69.76583    31.673113   -1186.4486    287.19531   -96.406717    34599.372   0.76098572    3.5878384 
      294000   -841.58117    227.59483    -1069.176    81.572884    35.896127    -1186.645    255.36237    21.882074    34505.721   0.76305108    3.5223071 
      295000   -852.93067    241.29867   -1094.2293    71.498175    33.162798   -1198.8903    270.73814   -80.925071    34412.748   0.76511262    3.5447228 
      296000   -859.98394    240.65069   -1100.6346    75.115385    39.656697   -1215.4067    270.01111   -237.74712    34268.829   0.76832587    3.5444916 
      297000   -862.90903    254.17789   -1117.0869    64.154963    32.025419   -1213.2673    285.18868  -0.66988108    34029.785   0.77372303    3.5391815 
      298000   -858.55818    241.41592   -1099.9741    75.891621    37.658105   -1213.5238    270.86969    152.04364    33785.155   0.77932535    3.4818708 
      299000   -843.81864    266.19869   -1110.0173    77.764823    32.964282   -1220.7464    298.67607    164.69168    33587.123   0.78392031    3.5054241 
      300000   -826.55549    261.79264   -1088.3481    90.436792    39.518592   -1218.3035    293.73246    268.04072    33545.081   0.78490281    3.4789949 
      301000   -818.69214    270.61256   -1089.3047    76.341943    35.291898   -1200.9385    303.62845    371.84109    33698.079   0.78133915    3.4998944 
      302000   -818.01384    270.80022   -1088.8141     80.10335    34.274395   -1203.1918    303.83901    138.19586    34024.588   0.77384119    3.5253981 
      303000     -822.661    267.14435   -1089.8054     74.69785    33.685042   -1198.1882    299.73711   -102.39476    34400.798   0.76537842    3.5578693 
      304000   -829.71183    266.37731   -1096.0891    67.357386    24.364843   -1187.8114    298.87648    -160.3895    34724.367   0.75824645    3.6045821 
      305000    -836.6748    247.43045   -1084.1053    68.753063    30.690954   -1183.5493    277.61803   -194.59921    34913.634   0.75413599    3.5827041 
      306000   -843.26326    243.08573    -1086.349    74.176803    24.837292   -1185.3631    272.74323   -329.89299    34906.322   0.75429396    3.5980532 
      307000   -847.94745    242.26378   -1090.2112    59.364453    32.121882   -1181.6976    271.82099   -126.73778    34739.172   0.75792329    3.5568809 
      308000   -848.32186    244.76213    -1093.084    68.564325    26.278696    -1187.927    274.62415   -23.640008    34462.322     0.764012    3.5836502 
      309000    -840.2269     264.0619   -1104.2888    68.554671    29.325934   -1202.1694    296.27858    87.813609      34159.2    0.7707917    3.5259039 
      310000   -827.45918    271.95297   -1099.4122    66.988813    27.472114   -1193.8731    305.13239     385.7265    33900.271   0.77667899    3.5498094 
      311000   -819.52363    271.82652   -1091.3502    74.054261    32.306466   -1197.7109    304.99052    371.96743    33783.767   0.77935738    3.5473754 
      312000   -818.96446    273.44653    -1092.411    72.419053    23.349287   -1188.1793    306.80818    421.98408     33892.88   0.77684835    3.5626285 
      313000   -829.47791    264.35645   -1093.8344    68.817354    29.662582   -1192.3143    296.60907    247.08354    34203.119   0.76980196    3.4846609 
      314000   -842.00348    238.48651     -1080.49     66.94194    26.701323   -1174.1333    267.58288    76.368066    34560.814   0.76183471    3.5658033 
      315000   -848.29018    241.88006   -1090.1702    70.032163    29.387267   -1189.5897    271.39046   -319.95535    34841.573   0.75569574    3.5365242 
      316000   -845.22273    248.50404   -1093.7268    60.869447    26.184415   -1180.7806    278.82259   -331.54086    34960.054   0.75313465    3.6033682 
      317000   -834.58278    248.33289   -1082.9157    64.731137    26.131571   -1173.7784    278.63056   -45.505017    34901.151   0.75440573    3.5683354 
      318000   -820.36059    257.75963   -1078.1202    80.929765    27.838881   -1186.8889     289.2074   -159.55575    34775.881   0.75712325    3.5353665 
      319000     -814.128    270.23497    -1084.363    80.832281    20.244416   -1185.4397    303.20479   -94.109661    34629.704   0.76031918    3.5776199 
      320000   -813.85335    264.27332   -1078.1267    73.465626    33.599329   -1185.1916     296.5158    39.924036    34480.576   0.76360754    3.5256506 
      321000   -815.61745       261.65   -1077.2675    75.539244    34.909502   -1187.7162    293.57242    110.77332    34363.032   0.76621958    3.4958253 
      322000   -819.75457    263.25494   -1083.0095    84.652063    29.067882   -1196.7294    295.37316    32.125039    34274.972   0.76818817    3.5178249 
      323000   -826.89623    255.46794   -1082.3642    91.181264    24.398938   -1197.9444    286.63612    37.884979    34228.828   0.76922378    3.5244528 
      324000   -837.40749    264.42405   -1101.8315    76.134697    25.212631   -1203.1789    296.68491    54.724672    34210.728   0.76963075    3.5094005 
      325000   -847.50363    247.96112   -1095.4647    79.321837    27.765273   -1202.5519    278.21344   -35.572481    34259.266   0.76854034     3.552979 
      326000   -852.59525     256.7967    -1109.392    65.406443    18.211767   -1193.0102      288.127    133.28568    34303.856   0.76754134    3.5618231 
      327000   -855.42477    247.36932   -1102.7941    72.926315    25.994939   -1201.7153    277.54944   -70.047438     34339.54   0.76674375    3.5759049 
      328000     -851.705    246.54977   -1098.2548    83.084287    23.565231   -1204.9043     276.6299   -159.88122    34343.117   0.76666391    3.5754035 
      329000   -830.62963    257.15839    -1087.788    77.444349    24.770581    -1190.003    288.53282    51.372866     34369.89   0.76606669    3.5190284 
      330000   -812.34207     274.7632   -1087.1053    83.544452    26.142302    -1196.792    308.28548   -104.38663      34426.6   0.76480477    3.5923235 
      331000   -809.23191    264.16384   -1073.3958    77.614437    26.790221   -1177.8004    296.39296     114.2729    34487.664   0.76345062    3.5745795 
      332000   -811.91873    251.12773   -1063.0465    79.241747    30.300254   -1172.5885    281.76639    81.231002    34577.604   0.76146478    3.5555372 
      333000   -819.05765    269.31248   -1088.3701    59.521816    27.504316   -1175.3963    302.16975    93.629571    34667.458   0.75949117    3.5818849 
      334000   -827.06706    250.67822   -1077.7453    68.893487     33.89221    -1180.531    281.26203    31.950374    34731.881    0.7580824    3.5349003 
      335000   -831.33287    241.58707   -1072.9199    80.768857    31.916775   -1185.6056    271.06172   -128.06959    34743.313   0.75783296    3.5296238 
      336000   -831.23079    252.34771   -1083.5785    74.598958    30.781117   -1188.9586    283.13521   -134.44779    34631.881   0.76027139    3.5238914 
      337000   -826.73678    250.58143   -1077.3182    77.404108    31.195775   -1185.9181    281.15343    19.815497    34399.717   0.76540247    3.4780811 
      338000    -814.0913    286.72164   -1100.8129    75.071431     28.73987   -1204.6242    321.70291    30.896825    34157.258   0.77083553    3.5373978 
      339000   -802.18065    296.57681   -1098.7575    79.649042    31.247376   -1209.6539    332.76045    60.466625    33994.389   0.77452865    3.5541976 
      340000   -799.79767    283.99927   -1083.7969    91.211261    28.594203   -1203.6024    318.64839    142.64879    33977.206   0.77492034    3.5530982 
      341000   -813.14764    281.80323   -1094.9509    69.786164    25.707221   -1190.4442    316.18442    292.80017    34109.194   0.77192172    3.5254657 
      342000   -832.08606    253.24027   -1085.3263    85.955507    25.977024   -1197.2589    284.13667   -123.70217    34404.281   0.76530093    3.5672662 
      343000    -840.6597    260.06316   -1100.7229     66.12034    23.196768     -1190.04    291.79197   -147.83532    34675.904   0.75930617    3.5751942 
      344000   -840.42226     263.4753   -1103.8976    62.139413    26.585542   -1192.6225    295.62041   -306.71669    34828.545   0.75597841    3.5744755 
      345000   -837.21653    244.35063   -1081.5672     55.01156    30.338617   -1166.9173    274.16245   -15.100997    34793.356   0.75674298    3.5726297 
      346000   -830.67412    270.66264   -1101.3368     69.41759    20.397673    -1191.152    303.68464   -165.07424     34631.21   0.76028611    3.5902142 
      347000   -822.86359    271.42195   -1094.2855    75.011675    28.765527   -1198.0627    304.53659   -78.693042    34370.373   0.76605593    3.5228591 
      348000   -814.21423    268.79215   -1083.0064    82.704009    25.514284   -1191.2247    301.58594    207.92849    34131.038   0.77142769    3.5126969 
      349000   -811.01097      268.817    -1079.828     94.33324    23.355799    -1197.517    301.61382    195.07624    34016.142   0.77403334    3.5223608 
      350000   -815.83818    268.67355   -1084.5117    86.045887    29.443756   -1200.0014    301.45287    134.52125    34040.145   0.77348754    3.5463758 
      351000   -834.20994    254.01896   -1088.2289    77.961076    27.953384   -1194.1434    285.01036    122.44798    34200.384   0.76986353    3.5178419 
      352000   -852.29203    256.03251   -1108.3245    69.232453    24.749698   -1202.3067    287.26957   -198.53473    34420.656   0.76493685    3.5778177 
      353000   -856.88286    238.61495   -1095.4978    61.112479    24.983278   -1181.5936      267.727    43.453183    34556.048    0.7619398     3.575202 
      354000    -852.1881     247.9012   -1100.0893    65.617408    22.628869   -1188.3356     278.1462   -76.295246    34651.588   0.75983901    3.5815551 
      355000   -841.78654    255.93776   -1097.7243    67.935664    27.667833   -1193.3278    287.16326   -125.41792    34669.497    0.7594465     3.537211 
      356000   -831.25478    259.25218    -1090.507    64.987084    27.235633   -1182.7297    290.88205    -51.14322    34563.339   0.76177906    3.5756567 
      357000    -821.7812    261.91275    -1083.694    73.706344    27.998412   -1185.3987    293.86723    57.302302    34421.205   0.76492464    3.5383174 
      358000   -815.20055    265.74613   -1080.9467    69.464249       24.669   -1175.0799    298.16829    217.01338    34335.233   0.76683993    3.5777167 
      359000   -815.38006    276.23313   -1091.6132      67.0569    32.347097   -1191.0172    309.93476    83.496826    34297.951   0.76767349     3.553742 
      360000   -821.21354    274.92337   -1096.1369    81.019297    40.341759    -1217.498    308.46519   -261.21328    34294.033    0.7677612    3.5105281 
      361000   -827.57648    265.90526   -1093.4817    77.278545    32.410153   -1203.1704    298.34684   -15.298527    34266.892   0.76836931    3.5034434 
      362000   -832.31615    256.77695   -1089.0931    67.108224    26.312257   -1182.5136    288.10483    217.25064    34247.536   0.76880357    3.5521904 
      363000   -837.56402    266.55809   -1104.1221    67.411967    34.361781   -1205.8958    299.07931   -67.005358     34267.34   0.76835926    3.5238366 
      364000   -839.73479    242.89191   -1082.6267    75.848376    30.507729   -1188.9828    272.52576     75.67192    34334.636   0.76685327    3.5079181 
      365000     -835.702    250.49237   -1086.1944    82.089329    30.463823   -1198.7475    281.05351   -144.30702    34483.839   0.76353528    3.5097395 
      366000   -817.21652    259.41266   -1076.6292    68.753414    26.106971   -1171.4896    291.06212    105.41451    34640.254   0.76008762    3.5427024 
      367000   -790.38215    283.95998   -1074.3421    77.335598    30.754283    -1182.432    318.60431   -80.438665    34817.971   0.75620799    3.5354198 
      368000   -785.99775    259.25358   -1045.2513    78.192952    25.449094   -1148.8934    290.88362    162.87015        35010   0.75206022    3.5082813 
      369000    -788.5179    267.47795   -1055.9958    67.061877    33.823417   -1156.8811     300.1114   -89.505447    35195.188   0.74810305     3.534996 
      370000   -793.61903    263.49997    -1057.119    71.377363     29.39883   -1157.8952     295.6481   -175.02779    35269.036   0.74653664    3.5562582 
      371000   -800.50376    265.18321    -1065.687    64.765221    25.607941   -1156.0601     297.5367   -65.608992    35201.874   0.74796098    3.5615569 
      372000   -806.28234     274.7644   -1081.0467    58.439912    33.995011   -1173.4817    308.28683   -189.65145    35052.524   0.75114785    3.5512034 
      373000   -813.14328    251.23318   -1064.3765    80.974272    34.016417   -1179.3672     281.8847   -87.260356    34812.494   0.75632698    3.5139365 
      374000   -820.25514    263.53913   -1083.7943    77.137594    30.669153    -1191.601    295.69203    8.9437778    34529.384   0.76252818    3.5002083 
      375000   -828.20455     266.4497   -1094.6543    72.905107    33.916388   -1201.4758    298.95771    47.405361    34284.625   0.76797188    3.5054112 
      376000   -840.13164    258.01466   -1098.1463    79.617223    25.419674   -1203.1832    289.49355    184.21999    34114.963   0.77179118    3.5510825 
      377000   -851.59088    254.04625   -1105.6371    68.739314    21.074079   -1195.4505    285.04098     189.3738    34026.157   0.77380553    3.5753402 
      378000   -860.67838    242.20264    -1102.881    70.072673    25.822654   -1198.7763    271.75239    162.00587    33986.525   0.77470785    3.5132307 
      379000    -865.6765    248.73112   -1114.4076    72.312989    28.169621   -1214.8902    279.07738   -3.3402694    33949.704   0.77554808    3.5481057 
      380000    -866.1707    264.81487   -1130.9856    61.354724    27.624681    -1219.965    297.12342   -74.655125    33921.196   0.77619987    3.5617712 
      381000   -863.51655    249.23572   -1112.7523    72.636905     28.99688   -1214.3861    279.64354    145.59292    33877.312   0.77720535    3.4963078 
      382000   -843.84339    253.72956   -1097.5729    91.117312    25.627729    -1214.318    284.68565    58.809956    33828.427   0.77832848    3.5153552 
      383000    -820.9784    276.80128   -1097.7797    81.384259    28.501035    -1207.665    310.57222    142.55944    33821.215   0.77849445    3.5314415 
      384000   -816.33287    281.20395   -1097.5368    82.627943    27.379842   -1207.5446    315.51204    166.38223    33915.023   0.77634115    3.5349826 
      385000   -821.24932    263.57717   -1084.8265    87.850115    33.791342    -1206.468    295.73471   -15.329956    34132.193   0.77140159    3.4722355 
      386000   -827.91892    265.59329   -1093.5122    69.691175    26.725285   -1189.9287     297.9968      66.0978    34398.538    0.7654287    3.5312547 
      387000   -835.31277    262.60709   -1097.9199    76.697322    25.798468   -1200.4157    294.64628   -243.90348    34653.928   0.75978769    3.5378869 
      388000   -840.07055    238.14978   -1078.2203     69.63763     31.24094   -1179.0989    267.20507   -129.24626    34777.139   0.75709587    3.5715913 
      389000   -838.23022    266.69626   -1104.9265    60.237445    31.096442   -1196.2604    299.23434   -267.84114    34733.868   0.75803905    3.5622848 
      390000   -827.21288    251.06094   -1078.2738    73.316634    23.316947   -1174.9074    281.69144    82.941419    34514.897   0.76284823    3.5620116 
      391000   -810.07186    278.90643   -1088.9783    68.169434    29.522127   -1186.6699    312.93421    135.31695    34239.892   0.76897522    3.6059325 
      392000    -800.9598    282.79241   -1083.7522      77.9538    34.448281   -1196.1543     317.2943    293.46832    34009.849   0.77417657    3.4901988 
      393000   -804.09051    271.34335   -1075.4339    77.249468    46.436748   -1199.1201     304.4484    199.79631    33956.032   0.77540356    3.5017982 
      394000   -811.21903    268.09778   -1079.3168    81.013313    38.417393   -1198.7475    300.80685    154.92231    34082.322   0.77253035    3.5056556 
      395000   -816.84855    287.35906   -1104.2076    65.412441     28.50219   -1198.1222     322.4181    101.10507    34366.412   0.76614421    3.5356283 
      396000   -822.27659    250.20589   -1072.4825    82.012856     32.21156   -1186.7069    280.73208   -230.42322    34768.674   0.75728019    3.5493539 
      397000   -822.10258    248.98486   -1071.0874    71.814049    27.778798   -1170.6803    279.36208   -176.60186    35085.617   0.75043937    3.5642259 
      398000    -818.8237    245.28451   -1064.1082    71.363972    23.864604   -1159.3368    275.21027   -112.05923    35248.658   0.74696824    3.5867598 
      399000   -814.89978    267.29537   -1082.1952    63.851539    35.986644   -1182.0333    299.90655   -172.25102    35235.385   0.74724962     3.471649 
      400000    -807.8168    259.19467   -1067.0115    67.756208    30.674669   -1165.4423    290.81753   -91.138525    35059.543   0.75099747    3.5514471 
Loop time of 6.54189 on 1 procs for 20000 steps with 300 atoms

Performance: 5282.876 ns/day, 0.005 hours/ns, 3057.220 timesteps/s
99.7% CPU use with 1 MPI tasks x 1 OpenMP threads

MPI task timing breakdown:
Section |  min time  |  avg time  |  max time  |%varavg| %total
---------------------------------------------------------------
Pair    | 4.5483     | 4.5483     | 4.5483     |   0.0 | 69.53
Bond    | 0.18825    | 0.18825    | 0.18825    |   0.0 |  2.88
Neigh   | 1.3115     | 1.3115     | 1.3115     |   0.0 | 20.05
Comm    | 0.18322    | 0.18322    | 0.18322    |   0.0 |  2.80
Output  | 0.027509   | 0.027509   | 0.027509   |   0.0 |  0.42
Modify  | 0.24091    | 0.24091    | 0.24091    |   0.0 |  3.68
Other   |            | 0.04227    |            |       |  0.65

Nlocal:    300 ave 300 max 300 min
Histogram: 1 0 0 0 0 0 0 0 0 0
Nghost:    1703 ave 1703 max 1703 min
Histogram: 1 0 0 0 0 0 0 0 0 0
Neighs:    16043 ave 16043 max 16043 min
Histogram: 1 0 0 0 0 0 0 0 0 0

Total # of neighbors = 16043
Ave neighs/atom = 53.4767
Ave special neighs/atom = 2
Neighbor list builds = 2325
Dangerous builds = 0


###################################################
### Average box size and change box ###############

variable          vol equal vol
fix               AVE all ave/time 1 1 1 v_vol mode scalar ave running

run               20000
Per MPI rank memory allocation (min/avg/max) = 7.942 | 7.942 | 7.942 Mbytes
Time TotEng KinEng PotEng E_bond E_angle E_vdwl Temp Press Volume Density v_RG 
      400000    -807.8168    259.19467   -1067.0115    67.756208    30.674669   -1165.4423    290.81753   -91.138525    35059.543   0.75099747    3.5514471 
      401000   -798.64671    262.81967   -1061.4664    85.703749    30.136117   -1177.3062    294.88479   -59.484264    34800.794   0.75658124    3.5722108 
      402000   -792.44143    280.92783   -1073.3693    69.871904    27.621741   -1170.8629    315.20222    264.17469    34503.011   0.76311101     3.572935 
      403000   -794.29886    277.70376   -1072.0026    83.468626    29.834283   -1185.3055     311.5848    209.22352    34291.446   0.76781912    3.5157962 
      404000   -815.56664    247.35578   -1062.9224    69.473223    36.222969   -1168.6186    277.53424    460.72324    34252.297   0.76869672      3.51059 
      405000   -839.53194    254.16531   -1093.6973    67.247317    32.044852   -1192.9894    285.17456   -26.146514    34388.571   0.76565054    3.5464361 
      406000   -844.52426    245.74434   -1090.2686    69.821434    26.999479   -1187.0895     275.7262    66.975563    34523.902   0.76264924    3.5254005 
      407000   -840.84514    251.52702   -1092.3722    65.647768    28.138313   -1186.1582    282.21439   -91.762937     34632.14   0.76026571     3.554778 
      408000   -831.00708    253.65464   -1084.6617    75.603581    27.180708    -1187.446    284.60159   -127.53003     34672.62    0.7593781    3.5231414 
      409000   -817.35084    271.81366   -1089.1645    69.123464    27.786134   -1186.0741    304.97609   -31.164768    34656.791   0.75972492    3.5605093 
      410000   -807.70419    273.47428   -1081.1785    77.573162    31.618265   -1190.3699    306.83931   -116.56915    34574.541   0.76153226    3.5762099 
      411000   -804.52632    272.14318   -1076.6695    81.643998    32.850771   -1191.1643    305.34581   -62.922507    34485.464   0.76349931    3.4986593 
      412000   -806.10513     261.8241   -1067.9292     74.10841    36.768901   -1178.8065    293.76776    175.82599    34422.425   0.76489752    3.4943792 
      413000    -810.8947    260.96594   -1071.8606    80.537451    35.646016   -1188.0441     292.8049    8.5650632    34419.317    0.7649666     3.506173 
      414000   -819.36479    264.84207   -1084.2069    87.492044    30.044823   -1201.7437    297.15394   -191.93573    34429.363    0.7647434    3.5138296 
      415000   -834.31921    250.52527   -1084.8445    74.244847    31.500567   -1190.5899    281.09042    23.166399    34379.141   0.76586056    3.5641774 
      416000   -848.92096    249.39813   -1098.3191    71.477345    29.983832   -1199.7803    279.82576   -54.288001     34349.56    0.7665201    3.5345117 
      417000   -852.68585    234.35239   -1087.0382    68.865996    31.126312   -1187.0305    262.94439    155.40521    34308.494   0.76743759    3.5497712 
      418000   -848.98469    258.25878   -1107.2435    69.253428    26.321652   -1202.8185    289.76745   -12.792705    34252.642   0.76868896    3.5370362 
      419000   -844.35782    245.88055   -1090.2384    69.599602    20.905342   -1180.7433    275.87902    194.29476    34197.508   0.76992826    3.6058912 
      420000   -839.94318    264.44304   -1104.3862    70.191888    25.701136   -1200.2792    296.70622    117.46089    34160.117   0.77077102    3.5545611 
      421000   -836.63815     268.9192   -1105.5574    76.610222    25.618468    -1207.786    301.72849   -42.693096    34163.964   0.77068423      3.54528 
      422000   -835.01921    275.83834   -1110.8576    64.094105    23.388464   -1198.3401     309.4918    90.588911    34181.424   0.77029055    3.5431401 
      423000   -835.18167    267.80212   -1102.9838    79.405523    26.102799   -1208.4921    300.47513   -41.804468    34227.561   0.76925225    3.5437113 
      424000   -835.03053    259.92751    -1094.958    76.049468    26.388335   -1197.3958    291.63977   -13.894141    34336.682   0.76680758    3.5449042 
      425000   -835.61118    262.62906   -1098.2402    69.924884    24.989911    -1193.155    294.67093     27.88081    34445.919   0.76437582    3.5269281 
      426000   -836.51491    259.60096   -1096.1159     72.40859    29.781125   -1198.3056    291.27339   -146.01376    34521.272   0.76270735    3.5487825 
      427000   -835.81627    265.67966   -1101.4959    63.826206    30.491252   -1195.8134    298.09371   -115.67705    34543.413    0.7622185    3.5757518 
      428000   -828.87317     261.0987   -1089.9719     72.92107    30.759285   -1193.6522    292.95385   -75.436561    34492.518   0.76334318    3.5494554 
      429000   -815.47556    265.97659   -1081.4521     78.27005    26.747532   -1186.4697    298.42687    35.987009    34435.174   0.76461434    3.5608558 
      430000    -804.7078    271.74154   -1076.4493    81.098217    27.705334   -1185.2529    304.89517    114.11814    34420.874   0.76493199    3.5250297 
      431000   -800.78386    284.47926   -1085.2631    78.020685    32.629683   -1195.9135    319.18694   -86.647047    34491.894   0.76335699    3.5583702 
      432000   -803.92402    277.64878   -1081.5728    76.789003    28.733605   -1187.0954    311.52312   -64.594109    34636.286   0.76017469    3.5563083 
      433000   -813.23067    261.54883   -1074.7795    72.094693    33.316166   -1180.1904    293.45891   -82.823825    34782.006   0.75698993    3.5754039 
      434000   -825.30387    252.24071   -1077.5446    68.775141    28.781158   -1175.1009    283.01515   -149.85241     34852.26   0.75546402    3.5739616 
      435000   -835.35798    246.33289   -1081.6909    71.461994    24.589772   -1177.7426    276.38655   -92.542878    34788.839   0.75684124    3.5472712 
      436000   -839.74841    249.38171   -1089.1301    76.971874    28.097426   -1194.1994    279.80734    -156.2508    34582.958   0.76134691    3.5574805 
      437000   -839.15639    269.08031   -1108.2367    83.653055    33.929306   -1225.8191    301.90926   -253.99064    34273.957   0.76821091    3.5043365 
      438000    -836.8957    257.00928    -1093.905    75.436886    29.455422   -1198.7973     288.3655    240.12913    33926.092   0.77608785    3.5271974 
      439000   -837.72134     277.6697    -1115.391    75.032198    26.539716    -1216.963    311.54659    256.48154    33681.313   0.78172807    3.5491406 
      440000   -850.01508    273.52258   -1123.5377    80.602478    24.413173   -1228.5533    306.89351    128.27454    33617.232    0.7832182    3.4980961 
      441000   -868.18876    251.11844   -1119.3072    65.113892    26.319773   -1210.7409    281.75596    254.69491    33684.776   0.78164772    3.5658241 
      442000   -879.32109     241.6928   -1121.0139    71.555871     26.38511   -1218.9549    271.18035    102.47548    33849.871   0.77783541    3.5391878 
      443000    -881.5599    239.77139   -1121.3313    65.525164    26.542316   -1213.3988    269.02453   -34.945384    34030.321   0.77371082    3.5424851 
      444000   -871.43515     229.2125   -1100.6477    69.880721    25.458182   -1195.9866    257.17741    95.303024    34159.509   0.77078474    3.5309806 
      445000   -855.87292    253.42386   -1109.2968    62.288201    25.941735   -1197.5267    284.34265    28.019748    34242.483   0.76891701    3.5639405 
      446000   -844.03805    261.61704   -1105.6551    65.818559    30.029129   -1201.5028    293.53543    35.923653    34314.878   0.76729482    3.5409111 
      447000   -835.21786    255.70793   -1090.9258     73.50244    29.340379   -1193.7686    286.90539   -71.263891    34383.358   0.76576662    3.5520058 
      448000   -828.33541    252.40176   -1080.7372    73.415549    27.333215   -1181.4859    283.19585    140.54487    34421.948   0.76490813    3.5697913 
      449000   -821.38555     253.3604    -1074.746    71.558654    25.989052   -1172.2937    284.27145    55.426586    34503.802   0.76309353    3.6362647 
      450000   -814.53653    254.60789   -1069.1444    77.861326    32.580761   -1179.5865    285.67114   -25.454908    34598.699   0.76100052    3.5436153 
      451000   -806.70305     259.8037   -1066.5068    77.527923    30.199921   -1174.2346    291.50087    36.311774     34682.71   0.75915718    3.5511415 
      452000   -801.16529    284.26658   -1085.4319    77.000473    26.867332   -1189.2997    318.94832   -165.40718    34771.182   0.75722557    3.5658489 
      453000   -798.25975    261.35687   -1059.6166    72.709647    25.417822   -1157.7441    293.24353    132.16062     34816.02   0.75625037    3.6022191 
      454000   -804.00338    269.49943   -1073.5028    68.576285    36.794307   -1178.8734    302.37951   -110.26542    34829.264   0.75596281    3.5649948 
      455000   -819.04117    255.52376   -1074.5649    83.050448    26.161319   -1183.7767    286.69875     -209.104    34822.906   0.75610082    3.5250359 
      456000   -831.82019     247.6041   -1079.4243    58.227812    27.624081   -1165.2762    277.81286    108.81724    34722.493   0.75828738    3.5557053 
      457000   -837.50247    249.61606   -1087.1185    57.930074    26.767935   -1171.8165    280.07029    163.00891    34562.397   0.76179982    3.5536154 
      458000   -838.52362    255.33752   -1093.8611      75.0772     27.86827   -1196.8066    286.48979   -54.607073    34399.762   0.76540147    3.5414217 
      459000   -835.19676    247.47439   -1082.6711    74.271205    32.069338   -1189.0117    277.66732    134.54817    34276.418   0.76815576    3.4884501 
      460000   -826.12833    262.26522   -1088.3935    72.651054    36.550766   -1197.5954    294.26269    18.585683    34203.015    0.7698043    3.5639117 
      461000   -811.47353    270.58643     -1082.06    71.474837    27.810504   -1181.3453    303.59913    298.75618     34163.34   0.77069829    3.5541676 
      462000   -800.53922    265.74799   -1066.2872    76.466962    29.258862    -1172.013    298.17038    296.51463    34266.227   0.76838422    3.5556571 
      463000   -797.75392    265.22769   -1062.9816    79.024153    27.421475   -1169.4272     297.5866    284.18483    34505.967   0.76304565    3.5374197 
      464000   -800.09876    261.33262   -1061.4314    72.533862    27.742314   -1161.7076    293.21631    72.509707     34852.42   0.75546054     3.540132 
      465000   -810.03233    260.83862   -1070.8709    65.504786     30.49844   -1166.8742    292.66204   -187.04185     35215.47   0.74767219    3.5227563 
[...]
     2975000   -835.10439    252.67177   -1087.7762    70.520946    27.137653   -1185.4348    283.49881   -27.011104    34478.771   0.76364753    3.5773459 
     2976000   -844.20856    266.33279   -1110.5413    68.613144    27.931364   -1207.0859    298.82652   -192.89341    34478.771   0.76364753    3.5542603 
     2977000   -847.04999    241.50038   -1088.5504    66.890727    29.144014   -1184.5851    270.96445   -14.355184    34478.771   0.76364753    3.5413812 
     2978000   -843.23448    239.20967   -1082.4442    77.561337    26.537976   -1186.5435    268.39427   -27.720278    34478.771   0.76364753    3.5727533 
     2979000   -837.93887     267.3018   -1105.2407    68.591111    23.226818   -1197.0586    299.91376   -79.777717    34478.771   0.76364753    3.5821471 
     2980000   -834.48454    269.77096   -1104.2555    63.191755    28.915809   -1196.3631    302.68417   -85.058522    34478.771   0.76364753    3.5518304 
     2981000   -832.13247    250.72949    -1082.862    78.516364    25.199569   -1186.5779    281.31956    88.736207    34478.771   0.76364753    3.5331524 
     2982000   -829.83611    248.88937   -1078.7255     79.20784    27.819763   -1185.7531    279.25494   -47.434785    34478.771   0.76364753    3.5285372 
     2983000     -826.572    268.82058   -1095.3926    67.883169     33.43503   -1196.7108    301.61783   -37.650457    34478.771   0.76364753    3.5451305 
     2984000   -821.78715    268.21076   -1089.9979    71.643845    32.587061   -1194.2288    300.93362   -85.025987    34478.771   0.76364753    3.5519663 
     2985000   -816.48381    263.40473   -1079.8885    69.353394    30.476357   -1179.7183    295.54123     86.43856    34478.771   0.76364753    3.5492639 
     2986000   -810.89896    271.09271   -1081.9917    71.623851    29.753575   -1183.3691    304.16717    36.475191    34478.771   0.76364753    3.5640217 
     2987000   -812.62382    280.12903   -1092.7529    65.219954    30.789433   -1188.7622    314.30596    -15.09347    34478.771   0.76364753    3.5983829 
     2988000   -826.53886      263.405   -1089.9439    75.675306     32.76346   -1198.3826    295.54154   -138.07843    34478.771   0.76364753    3.5833615 
     2989000   -841.95056    241.93243    -1083.883    73.600462    29.052318   -1186.5358    271.44921    -18.42849    34478.771   0.76364753    3.6146074 
     2990000   -847.76789    240.21272   -1087.9806    72.051765    31.042103   -1191.0745     269.5197   -90.492634    34478.771   0.76364753    3.5544757 
     2991000   -846.62892    250.94875   -1097.5777    80.140475     22.81688    -1200.535    281.56557   -139.25225    34478.771   0.76364753    3.5759915 
     2992000   -839.34065     250.9722   -1090.3129    75.349051    29.183314   -1194.8452    281.59188   -86.641182    34478.771   0.76364753    3.5508268 
     2993000   -828.21192     270.9658   -1099.1777    67.379591    25.216116   -1191.7734    304.02479    5.0984866    34478.771   0.76364753    3.5555103 
     2994000   -819.01393    257.77481   -1076.7887     83.65125    28.400343   -1188.8403    289.22443    100.83724    34478.771   0.76364753    3.5241323 
     2995000   -813.92157    274.47883   -1088.4004     68.28709    30.031303   -1186.7188    307.96642   -8.9088289    34478.771   0.76364753    3.5936481 
     2996000   -813.82943    267.97661    -1081.806    80.001303    30.864766   -1192.6721     300.6709    -32.99649    34478.771   0.76364753    3.5595192 
     2997000   -815.27999    263.25482   -1078.5348    70.203758    30.324214   -1179.0628    295.37303    151.87866    34478.771   0.76364753     3.580275 
     2998000   -816.31988    262.44641   -1078.7663    65.360253    31.015467    -1175.142      294.466    196.68269    34478.771   0.76364753    3.5277626 
     2999000   -817.81534    270.03734   -1087.8527    79.496869    28.506733   -1195.8563    302.98305   -57.887523    34478.771   0.76364753    3.5463206 
     3000000    -820.7092    263.79152   -1084.5007    69.024384    25.090868    -1178.616    295.97522    100.24813    34478.771   0.76364753    3.5681839 
Loop time of 111.773 on 1 procs for 100000 steps with 300 atoms

Performance: 1545.990 ns/day, 0.016 hours/ns, 894.670 timesteps/s
99.5% CPU use with 1 MPI tasks x 1 OpenMP threads

MPI task timing breakdown:
Section |  min time  |  avg time  |  max time  |%varavg| %total
---------------------------------------------------------------
Pair    | 40.016     | 40.016     | 40.016     |   0.0 | 35.80
Bond    | 2.4871     | 2.4871     | 2.4871     |   0.0 |  2.23
Neigh   | 6.6193     | 6.6193     | 6.6193     |   0.0 |  5.92
Comm    | 0.99853    | 0.99853    | 0.99853    |   0.0 |  0.89
Output  | 0.23059    | 0.23059    | 0.23059    |   0.0 |  0.21
Modify  | 61.157     | 61.157     | 61.157     |   0.0 | 54.72
Other   |            | 0.264      |            |       |  0.24

Nlocal:    300 ave 300 max 300 min
Histogram: 1 0 0 0 0 0 0 0 0 0
Nghost:    1723 ave 1723 max 1723 min
Histogram: 1 0 0 0 0 0 0 0 0 0
Neighs:    16508 ave 16508 max 16508 min
Histogram: 1 0 0 0 0 0 0 0 0 0

Total # of neighbors = 16508
Ave neighs/atom = 55.0267
Ave special neighs/atom = 2
Neighbor list builds = 11559
Dangerous builds = 0

unfix             tK
variable          kappa delete
variable          kzz delete
variable          kyy delete
variable          kxx delete
unfix             HACF
unfix             tH
uncompute         H
uncompute         SV
uncompute         PE
uncompute         KE

unfix             tE
variable          etadc delete
variable          eta delete
variable          etayz delete
variable          etaxz delete
variable          etaxy delete
variable          etazz delete
variable          etayy delete
variable          etaxx delete
unfix             PACF
unfix             tP
variable          pyz delete
variable          pxz delete
variable          pxy delete
variable          nzz delete
variable          nyy delete
variable          nxx delete
variable          pzz delete
variable          pyy delete
variable          pxx delete

unfix             hRG
undump            dANGLE
uncompute         ANGLE
uncompute         ATYPE
undump            dBOND
uncompute         BOND
uncompute         BTYPE

unfix             ZMOM
unfix             NVT


###################################################
### End Analysis ##################################

undump            TRJ

thermo_style      custom time etotal ke pe ebond eangle evdwl temp press vol density

unfix             tRG
variable          RG delete
uncompute         RGMOLS
uncompute         MOLS


###################################################
### End ###########################################

write_data        end.data
write_restart     end.restart


###################################################
### Post-treatment ################################

variable          i loop 3
label             looprdf

clear
OMP_NUM_THREADS environment is not set. Defaulting to 1 thread. (src/comm.cpp:94)
  using 1 OpenMP thread(s) per MPI task

# System (must be defined for rerun, it will be updated)
read_restart      end.restart
  restoring atom style full from restart
  orthogonal box = (0 0 0) to (32.5475 32.5475 32.5475)
  1 by 1 by 1 MPI processor grid
  restoring pair style lj/gromacs from restart
  restoring bond style harmonic from restart
  restoring angle style cosine/squared from restart
  300 atoms
  200 bonds
  100 angles
  2 = max # of 1-2 neighbors
  1 = max # of 1-3 neighbors
  1 = max # of 1-4 neighbors
  2 = max # of special neighbors
  special bonds CPU = 0.000104826 secs
  read_restart CPU = 0.000588055 secs
reset_timestep    0

thermo_style      one
thermo            0

bond_style        zero nocoeff
bond_coeff        *
angle_style       zero nocoeff
angle_coeff       *

pair_style        zero 15.0 nocoeff
pair_coeff        * *
neighbor          0.0 bin
neigh_modify      every 1 delay 0 check no
neigh_modify      exclude none
#neigh_modify      page 1000000 one 20000

if                "$i == 1" then                     "variable FILENAME index rdf.011.time"                     "special_bonds lj 0.0 1.0 1.0"
variable FILENAME index rdf.011.time
special_bonds lj 0.0 1.0 1.0
if                "$i == 2" then                     "variable FILENAME index rdf.intra.011.time"                     "special_bonds lj 0.0 1.0 1.0"                     "neigh_modify exclude molecule/inter all"
if                "$i == 3" then                     "variable FILENAME index rdf.inter.time"                     "special_bonds lj 0.0 0.0 0.0"                     "neigh_modify exclude molecule/intra all"
compute           RDF all rdf 150 1 1
fix               tRDF all ave/time 1 1 500 c_RDF[*]                   mode vector ave running file ${FILENAME} overwrite title3 "# Row Distance RDF CN"
fix               tRDF all ave/time 1 1 500 c_RDF[*]                   mode vector ave running file rdf.011.time overwrite title3 "# Row Distance RDF CN"
rerun             dump.lammpstrj first 50000 every 500 dump x y z wrapped no box yes replace yes
Neighbor list info ...
  update every 1 steps, delay 0 steps, check no
  max neighbors/atom: 2000, page size: 100000
  master list distance cutoff = 15
  ghost atom cutoff = 15
  binsize = 7.5, bins = 5 5 5
  2 neighbor lists, perpetual/occasional/extra = 1 1 0
  (1) pair zero, perpetual
      attributes: half, newton on
      pair build: half/bin/newton
      stencil: half/bin/3d/newton
      bin: standard
  (2) compute rdf, occasional, copy from (1)
      attributes: half, newton on
      pair build: copy
      stencil: none
      bin: none
Per MPI rank memory allocation (min/avg/max) = 6.304 | 6.304 | 6.304 Mbytes
Step Temp E_pair E_mol TotEng Press 
   50000    295.97522            0            0    263.79152    349.73727 
  150000    295.97522            0            0    263.79152    349.73727 
Loop time of 0.248089 on 1 procs for 201 steps with 300 atoms

Performance: 1400.013 ns/day, 0.017 hours/ns, 810.193 timesteps/s
100.0% CPU use with 1 MPI tasks x 1 OpenMP threads

MPI task timing breakdown:
Section |  min time  |  avg time  |  max time  |%varavg| %total
---------------------------------------------------------------
Pair    | 0          | 0          | 0          |   0.0 |  0.00
Bond    | 0          | 0          | 0          |   0.0 |  0.00
Neigh   | 0          | 0          | 0          |   0.0 |  0.00
Comm    | 0          | 0          | 0          |   0.0 |  0.00
Output  | 0          | 0          | 0          |   0.0 |  0.00
Modify  | 0          | 0          | 0          |   0.0 |  0.00
Other   |            | 0.2481     |            |       |100.00

Nlocal:    300 ave 300 max 300 min
Histogram: 1 0 0 0 0 0 0 0 0 0
Nghost:    1812 ave 1812 max 1812 min
Histogram: 1 0 0 0 0 0 0 0 0 0
Neighs:    18237 ave 18237 max 18237 min
Histogram: 1 0 0 0 0 0 0 0 0 0

Total # of neighbors = 18237
Ave neighs/atom = 60.79
Ave special neighs/atom = 2
Neighbor list builds = 0
Dangerous builds not checked
unfix             tRDF
uncompute         RDF
variable          FILENAME delete

next              i
jump              SELF looprdf

clear
OMP_NUM_THREADS environment is not set. Defaulting to 1 thread. (src/comm.cpp:94)
  using 1 OpenMP thread(s) per MPI task

# System (must be defined for rerun, it will be updated)
read_restart      end.restart
  restoring atom style full from restart
  orthogonal box = (0 0 0) to (32.5475 32.5475 32.5475)
  1 by 1 by 1 MPI processor grid
  restoring pair style lj/gromacs from restart
  restoring bond style harmonic from restart
  restoring angle style cosine/squared from restart
  300 atoms
  200 bonds
  100 angles
  2 = max # of 1-2 neighbors
  1 = max # of 1-3 neighbors
  1 = max # of 1-4 neighbors
  2 = max # of special neighbors
  special bonds CPU = 8.7019e-05 secs
  read_restart CPU = 0.000478759 secs
reset_timestep    0

thermo_style      one
thermo            0

bond_style        zero nocoeff
bond_coeff        *
angle_style       zero nocoeff
angle_coeff       *

pair_style        zero 15.0 nocoeff
pair_coeff        * *
neighbor          0.0 bin
neigh_modify      every 1 delay 0 check no
neigh_modify      exclude none
#neigh_modify      page 1000000 one 20000

if                "$i == 1" then                     "variable FILENAME index rdf.011.time"                     "special_bonds lj 0.0 1.0 1.0"
if                "$i == 2" then                     "variable FILENAME index rdf.intra.011.time"                     "special_bonds lj 0.0 1.0 1.0"                     "neigh_modify exclude molecule/inter all"
variable FILENAME index rdf.intra.011.time
special_bonds lj 0.0 1.0 1.0
neigh_modify exclude molecule/inter all
if                "$i == 3" then                     "variable FILENAME index rdf.inter.time"                     "special_bonds lj 0.0 0.0 0.0"                     "neigh_modify exclude molecule/intra all"
compute           RDF all rdf 150 1 1
fix               tRDF all ave/time 1 1 500 c_RDF[*]                   mode vector ave running file ${FILENAME} overwrite title3 "# Row Distance RDF CN"
fix               tRDF all ave/time 1 1 500 c_RDF[*]                   mode vector ave running file rdf.intra.011.time overwrite title3 "# Row Distance RDF CN"
rerun             dump.lammpstrj first 50000 every 500 dump x y z wrapped no box yes replace yes
Neighbor list info ...
  update every 1 steps, delay 0 steps, check no
  max neighbors/atom: 2000, page size: 100000
  master list distance cutoff = 15
  ghost atom cutoff = 15
  binsize = 7.5, bins = 5 5 5
  2 neighbor lists, perpetual/occasional/extra = 1 1 0
  (1) pair zero, perpetual
      attributes: half, newton on
      pair build: half/bin/newton
      stencil: half/bin/3d/newton
      bin: standard
  (2) compute rdf, occasional, copy from (1)
      attributes: half, newton on
      pair build: copy
      stencil: none
      bin: none
Per MPI rank memory allocation (min/avg/max) = 6.304 | 6.304 | 6.304 Mbytes
Step Temp E_pair E_mol TotEng Press 
   50000    295.97522            0            0    263.79152    349.73727 
  150000    295.97522            0            0    263.79152    349.73727 
Loop time of 0.219689 on 1 procs for 201 steps with 300 atoms

Performance: 1581.001 ns/day, 0.015 hours/ns, 914.931 timesteps/s
100.0% CPU use with 1 MPI tasks x 1 OpenMP threads

MPI task timing breakdown:
Section |  min time  |  avg time  |  max time  |%varavg| %total
---------------------------------------------------------------
Pair    | 0          | 0          | 0          |   0.0 |  0.00
Bond    | 0          | 0          | 0          |   0.0 |  0.00
Neigh   | 0          | 0          | 0          |   0.0 |  0.00
Comm    | 0          | 0          | 0          |   0.0 |  0.00
Output  | 0          | 0          | 0          |   0.0 |  0.00
Modify  | 0          | 0          | 0          |   0.0 |  0.00
Other   |            | 0.2197     |            |       |100.00

Nlocal:    300 ave 300 max 300 min
Histogram: 1 0 0 0 0 0 0 0 0 0
Nghost:    1812 ave 1812 max 1812 min
Histogram: 1 0 0 0 0 0 0 0 0 0
Neighs:    100 ave 100 max 100 min
Histogram: 1 0 0 0 0 0 0 0 0 0

Total # of neighbors = 100
Ave neighs/atom = 0.333333
Ave special neighs/atom = 2
Neighbor list builds = 0
Dangerous builds not checked
unfix             tRDF
uncompute         RDF
variable          FILENAME delete

next              i
jump              SELF looprdf

clear
OMP_NUM_THREADS environment is not set. Defaulting to 1 thread. (src/comm.cpp:94)
  using 1 OpenMP thread(s) per MPI task

# System (must be defined for rerun, it will be updated)
read_restart      end.restart
  restoring atom style full from restart
  orthogonal box = (0 0 0) to (32.5475 32.5475 32.5475)
  1 by 1 by 1 MPI processor grid
  restoring pair style lj/gromacs from restart
  restoring bond style harmonic from restart
  restoring angle style cosine/squared from restart
  300 atoms
  200 bonds
  100 angles
  2 = max # of 1-2 neighbors
  1 = max # of 1-3 neighbors
  1 = max # of 1-4 neighbors
  2 = max # of special neighbors
  special bonds CPU = 8.9252e-05 secs
  read_restart CPU = 0.000514289 secs
reset_timestep    0

thermo_style      one
thermo            0

bond_style        zero nocoeff
bond_coeff        *
angle_style       zero nocoeff
angle_coeff       *

pair_style        zero 15.0 nocoeff
pair_coeff        * *
neighbor          0.0 bin
neigh_modify      every 1 delay 0 check no
neigh_modify      exclude none
#neigh_modify      page 1000000 one 20000

if                "$i == 1" then                     "variable FILENAME index rdf.011.time"                     "special_bonds lj 0.0 1.0 1.0"
if                "$i == 2" then                     "variable FILENAME index rdf.intra.011.time"                     "special_bonds lj 0.0 1.0 1.0"                     "neigh_modify exclude molecule/inter all"
if                "$i == 3" then                     "variable FILENAME index rdf.inter.time"                     "special_bonds lj 0.0 0.0 0.0"                     "neigh_modify exclude molecule/intra all"
variable FILENAME index rdf.inter.time
special_bonds lj 0.0 0.0 0.0
  2 = max # of 1-2 neighbors
  1 = max # of 1-3 neighbors
  1 = max # of 1-4 neighbors
  2 = max # of special neighbors
  special bonds CPU = 8.1715e-05 secs
neigh_modify exclude molecule/intra all
compute           RDF all rdf 150 1 1
fix               tRDF all ave/time 1 1 500 c_RDF[*]                   mode vector ave running file ${FILENAME} overwrite title3 "# Row Distance RDF CN"
fix               tRDF all ave/time 1 1 500 c_RDF[*]                   mode vector ave running file rdf.inter.time overwrite title3 "# Row Distance RDF CN"
rerun             dump.lammpstrj first 50000 every 500 dump x y z wrapped no box yes replace yes
Neighbor list info ...
  update every 1 steps, delay 0 steps, check no
  max neighbors/atom: 2000, page size: 100000
  master list distance cutoff = 15
  ghost atom cutoff = 15
  binsize = 7.5, bins = 5 5 5
  2 neighbor lists, perpetual/occasional/extra = 1 1 0
  (1) pair zero, perpetual
      attributes: half, newton on
      pair build: half/bin/newton
      stencil: half/bin/3d/newton
      bin: standard
  (2) compute rdf, occasional, copy from (1)
      attributes: half, newton on
      pair build: copy
      stencil: none
      bin: none
Per MPI rank memory allocation (min/avg/max) = 6.304 | 6.304 | 6.304 Mbytes
Step Temp E_pair E_mol TotEng Press 
   50000    295.97522            0            0    263.79152    349.73727 
  150000    295.97522            0            0    263.79152    349.73727 
Loop time of 0.345678 on 1 procs for 201 steps with 300 atoms

Performance: 1004.772 ns/day, 0.024 hours/ns, 581.465 timesteps/s
100.0% CPU use with 1 MPI tasks x 1 OpenMP threads

MPI task timing breakdown:
Section |  min time  |  avg time  |  max time  |%varavg| %total
---------------------------------------------------------------
Pair    | 0          | 0          | 0          |   0.0 |  0.00
Bond    | 0          | 0          | 0          |   0.0 |  0.00
Neigh   | 0          | 0          | 0          |   0.0 |  0.00
Comm    | 0          | 0          | 0          |   0.0 |  0.00
Output  | 0          | 0          | 0          |   0.0 |  0.00
Modify  | 0          | 0          | 0          |   0.0 |  0.00
Other   |            | 0.3457     |            |       |100.00

Nlocal:    300 ave 300 max 300 min
Histogram: 1 0 0 0 0 0 0 0 0 0
Nghost:    1812 ave 1812 max 1812 min
Histogram: 1 0 0 0 0 0 0 0 0 0
Neighs:    18137 ave 18137 max 18137 min
Histogram: 1 0 0 0 0 0 0 0 0 0

Total # of neighbors = 18137
Ave neighs/atom = 60.4567
Ave special neighs/atom = 2
Neighbor list builds = 0
Dangerous builds not checked
unfix             tRDF
uncompute         RDF
variable          FILENAME delete

next              i
jump              SELF looprdf
variable          i delete
Total wall time: 0:02:09
